# vtk DataFile Version 2.0
Unstructured Grid Example
ASCII
DATASET UNSTRUCTURED_GRID

POINTS 961 float
0.150000006 -0.00839745998 0
0.146666661 -0.00839745998 0
0.143333331 -0.00839745998 0
0.140000001 -0.00839745998 0
0.13666667 -0.00839745998 0
0.13333334 -0.00839745998 0
0.129999995 -0.00839745998 0
0.126666665 -0.00839745998 0
0.123333335 -0.00839745998 0
0.119999997 -0.00839745998 0
0.116666667 -0.00839745998 0
0.113333337 -0.00839745998 0
0.109999999 -0.00839745998 0
0.106666669 -0.00839745998 0
0.103333332 -0.00839745998 0
0.100000001 -0.00839745998 0
0.0966666639 -0.00839745998 0
0.0933333337 -0.00839745998 0
0.0900000036 -0.00839745998 0
0.086666666 -0.00839745998 0
0.0833333358 -0.00839745998 0
0.0799999982 -0.00839745998 0
0.0766666681 -0.00839745998 0
0.0733333305 -0.00839745998 0
0.0700000003 -0.00839745998 0
0.0666666701 -0.00839745998 0
0.0633333325 -0.00839745998 0
0.0599999987 -0.00839745998 0
0.0566666685 -0.00839745998 0
0.0533333346 -0.00839745998 0
0.0500000007 -0.00839745998 0
0.148333326 -0.0112842107 0
0.144999996 -0.0112842107 0
0.141666666 -0.0112842107 0
0.138333336 -0.0112842107 0
0.135000005 -0.0112842107 0
0.13166666 -0.0112842107 0
0.12833333 -0.0112842107 0
0.125 -0.0112842107 0
0.12166667 -0.0112842107 0
0.118333332 -0.0112842107 0
0.115000002 -0.0112842107 0
0.111666664 -0.0112842107 0
0.108333334 -0.0112842107 0
0.104999997 -0.0112842107 0
0.101666667 -0.0112842107 0
0.0983333364 -0.0112842107 0
0.0949999988 -0.0112842107 0
0.0916666687 -0.0112842107 0
0.088333331 -0.0112842107 0
0.0850000009 -0.0112842107 0
0.0816666633 -0.0112842107 0
0.0783333331 -0.0112842107 0
0.075000003 -0.0112842107 0
0.0716666654 -0.0112842107 0
0.0683333352 -0.0112842107 0
0.0649999976 -0.0112842107 0
0.0616666675 -0.0112842107 0
0.0583333336 -0.0112842107 0
0.0549999997 -0.0112842107 0
0.0516666658 -0.0112842107 0
0.0483333319 -0.0112842107 0
0.146666661 -0.0141709624 0
0.143333331 -0.0141709624 0
0.140000001 -0.0141709624 0
0.13666667 -0.0141709624 0
0.13333334 -0.0141709624 0
0.129999995 -0.0141709624 0
0.126666665 -0.0141709624 0
0.123333335 -0.0141709624 0
0.119999997 -0.0141709624 0
0.116666667 -0.0141709624 0
0.113333337 -0.0141709624 0
0.109999999 -0.0141709624 0
0.106666669 -0.0141709624 0
0.103333332 -0.0141709624 0
0.100000001 -0.0141709624 0
0.0966666639 -0.0141709624 0
0.0933333337 -0.0141709624 0
0.0900000036 -0.0141709624 0
0.086666666 -0.0141709624 0
0.0833333358 -0.0141709624 0
0.0799999982 -0.0141709624 0
0.0766666681 -0.0141709624 0
0.0733333305 -0.0141709624 0
0.0700000003 -0.0141709624 0
0.0666666701 -0.0141709624 0
0.0633333325 -0.0141709624 0
0.0599999987 -0.0141709624 0
0.0566666685 -0.0141709624 0
0.0533333346 -0.0141709624 0
0.0500000007 -0.0141709624 0
0.0466666669 -0.0141709624 0
0.144999996 -0.0170577131 0
0.141666666 -0.0170577131 0
0.138333336 -0.0170577131 0
0.135000005 -0.0170577131 0
0.13166666 -0.0170577131 0
0.12833333 -0.0170577131 0
0.125 -0.0170577131 0
0.12166667 -0.0170577131 0
0.118333332 -0.0170577131 0
0.115000002 -0.0170577131 0
0.111666664 -0.0170577131 0
0.108333334 -0.0170577131 0
0.104999997 -0.0170577131 0
0.101666667 -0.0170577131 0
0.0983333364 -0.0170577131 0
0.0949999988 -0.0170577131 0
0.0916666687 -0.0170577131 0
0.088333331 -0.0170577131 0
0.0850000009 -0.0170577131 0
0.0816666633 -0.0170577131 0
0.0783333331 -0.0170577131 0
0.075000003 -0.0170577131 0
0.0716666654 -0.0170577131 0
0.0683333352 -0.0170577131 0
0.0649999976 -0.0170577131 0
0.0616666675 -0.0170577131 0
0.0583333336 -0.0170577131 0
0.0549999997 -0.0170577131 0
0.0516666658 -0.0170577131 0
0.0483333319 -0.0170577131 0
0.0450000018 -0.0170577131 0
0.143333331 -0.0199444648 0
0.140000001 -0.0199444648 0
0.13666667 -0.0199444648 0
0.13333334 -0.0199444648 0
0.129999995 -0.0199444648 0
0.126666665 -0.0199444648 0
0.123333335 -0.0199444648 0
0.119999997 -0.0199444648 0
0.116666667 -0.0199444648 0
0.113333337 -0.0199444648 0
0.109999999 -0.0199444648 0
0.106666669 -0.0199444648 0
0.103333332 -0.0199444648 0
0.100000001 -0.0199444648 0
0.0966666639 -0.0199444648 0
0.0933333337 -0.0199444648 0
0.0900000036 -0.0199444648 0
0.086666666 -0.0199444648 0
0.0833333358 -0.0199444648 0
0.0799999982 -0.0199444648 0
0.0766666681 -0.0199444648 0
0.0733333305 -0.0199444648 0
0.0700000003 -0.0199444648 0
0.0666666701 -0.0199444648 0
0.0633333325 -0.0199444648 0
0.0599999987 -0.0199444648 0
0.0566666685 -0.0199444648 0
0.0533333346 -0.0199444648 0
0.0500000007 -0.0199444648 0
0.0466666669 -0.0199444648 0
0.043333333 -0.0199444648 0
0.141666666 -0.0228312165 0
0.138333336 -0.0228312165 0
0.135000005 -0.0228312165 0
0.13166666 -0.0228312165 0
0.12833333 -0.0228312165 0
0.125 -0.0228312165 0
0.12166667 -0.0228312165 0
0.118333332 -0.0228312165 0
0.115000002 -0.0228312165 0
0.111666664 -0.0228312165 0
0.108333334 -0.0228312165 0
0.104999997 -0.0228312165 0
0.101666667 -0.0228312165 0
0.0983333364 -0.0228312165 0
0.0949999988 -0.0228312165 0
0.0916666687 -0.0228312165 0
0.088333331 -0.0228312165 0
0.0850000009 -0.0228312165 0
0.0816666633 -0.0228312165 0
0.0783333331 -0.0228312165 0
0.075000003 -0.0228312165 0
0.0716666654 -0.0228312165 0
0.0683333352 -0.0228312165 0
0.0649999976 -0.0228312165 0
0.0616666675 -0.0228312165 0
0.0583333336 -0.0228312165 0
0.0549999997 -0.0228312165 0
0.0516666658 -0.0228312165 0
0.0483333319 -0.0228312165 0
0.0450000018 -0.0228312165 0
0.0416666679 -0.0228312165 0
0.140000001 -0.0257179681 0
0.13666667 -0.0257179681 0
0.13333334 -0.0257179681 0
0.129999995 -0.0257179681 0
0.126666665 -0.0257179681 0
0.123333335 -0.0257179681 0
0.119999997 -0.0257179681 0
0.116666667 -0.0257179681 0
0.113333337 -0.0257179681 0
0.109999999 -0.0257179681 0
0.106666669 -0.0257179681 0
0.103333332 -0.0257179681 0
0.100000001 -0.0257179681 0
0.0966666639 -0.0257179681 0
0.0933333337 -0.0257179681 0
0.0900000036 -0.0257179681 0
0.086666666 -0.0257179681 0
0.0833333358 -0.0257179681 0
0.0799999982 -0.0257179681 0
0.0766666681 -0.0257179681 0
0.0733333305 -0.0257179681 0
0.0700000003 -0.0257179681 0
0.0666666701 -0.0257179681 0
0.0633333325 -0.0257179681 0
0.0599999987 -0.0257179681 0
0.0566666685 -0.0257179681 0
0.0533333346 -0.0257179681 0
0.0500000007 -0.0257179681 0
0.0466666669 -0.0257179681 0
0.043333333 -0.0257179681 0
0.0399999991 -0.0257179681 0
0.138333336 -0.0286047198 0
0.135000005 -0.0286047198 0
0.13166666 -0.0286047198 0
0.12833333 -0.0286047198 0
0.125 -0.0286047198 0
0.12166667 -0.0286047198 0
0.118333332 -0.0286047198 0
0.115000002 -0.0286047198 0
0.111666664 -0.0286047198 0
0.108333334 -0.0286047198 0
0.104999997 -0.0286047198 0
0.101666667 -0.0286047198 0
0.0983333364 -0.0286047198 0
0.0949999988 -0.0286047198 0
0.0916666687 -0.0286047198 0
0.088333331 -0.0286047198 0
0.0850000009 -0.0286047198 0
0.0816666633 -0.0286047198 0
0.0783333331 -0.0286047198 0
0.075000003 -0.0286047198 0
0.0716666654 -0.0286047198 0
0.0683333352 -0.0286047198 0
0.0649999976 -0.0286047198 0
0.0616666675 -0.0286047198 0
0.0583333336 -0.0286047198 0
0.0549999997 -0.0286047198 0
0.0516666658 -0.0286047198 0
0.0483333319 -0.0286047198 0
0.0450000018 -0.0286047198 0
0.0416666679 -0.0286047198 0
0.038333334 -0.0286047198 0
0.13666667 -0.0314914696 0
0.13333334 -0.0314914696 0
0.129999995 -0.0314914696 0
0.126666665 -0.0314914696 0
0.123333335 -0.0314914696 0
0.119999997 -0.0314914696 0
0.116666667 -0.0314914696 0
0.113333337 -0.0314914696 0
0.109999999 -0.0314914696 0
0.106666669 -0.0314914696 0
0.103333332 -0.0314914696 0
0.100000001 -0.0314914696 0
0.0966666639 -0.0314914696 0
0.0933333337 -0.0314914696 0
0.0900000036 -0.0314914696 0
0.086666666 -0.0314914696 0
0.0833333358 -0.0314914696 0
0.0799999982 -0.0314914696 0
0.0766666681 -0.0314914696 0
0.0733333305 -0.0314914696 0
0.0700000003 -0.0314914696 0
0.0666666701 -0.0314914696 0
0.0633333325 -0.0314914696 0
0.0599999987 -0.0314914696 0
0.0566666685 -0.0314914696 0
0.0533333346 -0.0314914696 0
0.0500000007 -0.0314914696 0
0.0466666669 -0.0314914696 0
0.043333333 -0.0314914696 0
0.0399999991 -0.0314914696 0
0.0366666652 -0.0314914696 0
0.135000005 -0.0343782231 0
0.13166666 -0.0343782231 0
0.12833333 -0.0343782231 0
0.125 -0.0343782231 0
0.12166667 -0.0343782231 0
0.118333332 -0.0343782231 0
0.115000002 -0.0343782231 0
0.111666664 -0.0343782231 0
0.108333334 -0.0343782231 0
0.104999997 -0.0343782231 0
0.101666667 -0.0343782231 0
0.0983333364 -0.0343782231 0
0.0949999988 -0.0343782231 0
0.0916666687 -0.0343782231 0
0.088333331 -0.0343782231 0
0.0850000009 -0.0343782231 0
0.0816666633 -0.0343782231 0
0.0783333331 -0.0343782231 0
0.075000003 -0.0343782231 0
0.0716666654 -0.0343782231 0
0.0683333352 -0.0343782231 0
0.0649999976 -0.0343782231 0
0.0616666675 -0.0343782231 0
0.0583333336 -0.0343782231 0
0.0549999997 -0.0343782231 0
0.0516666658 -0.0343782231 0
0.0483333319 -0.0343782231 0
0.0450000018 -0.0343782231 0
0.0416666679 -0.0343782231 0
0.038333334 -0.0343782231 0
0.0350000001 -0.0343782231 0
0.13333334 -0.0372649729 0
0.129999995 -0.0372649729 0
0.126666665 -0.0372649729 0
0.123333335 -0.0372649729 0
0.119999997 -0.0372649729 0
0.116666667 -0.0372649729 0
0.113333337 -0.0372649729 0
0.109999999 -0.0372649729 0
0.106666669 -0.0372649729 0
0.103333332 -0.0372649729 0
0.100000001 -0.0372649729 0
0.0966666639 -0.0372649729 0
0.0933333337 -0.0372649729 0
0.0900000036 -0.0372649729 0
0.086666666 -0.0372649729 0
0.0833333358 -0.0372649729 0
0.0799999982 -0.0372649729 0
0.0766666681 -0.0372649729 0
0.0733333305 -0.0372649729 0
0.0700000003 -0.0372649729 0
0.0666666701 -0.0372649729 0
0.0633333325 -0.0372649729 0
0.0599999987 -0.0372649729 0
0.0566666685 -0.0372649729 0
0.0533333346 -0.0372649729 0
0.0500000007 -0.0372649729 0
0.0466666669 -0.0372649729 0
0.043333333 -0.0372649729 0
0.0399999991 -0.0372649729 0
0.0366666652 -0.0372649729 0
0.0333333351 -0.0372649729 0
0.13166666 -0.0401517227 0
0.12833333 -0.0401517227 0
0.125 -0.0401517227 0
0.12166667 -0.0401517227 0
0.118333332 -0.0401517227 0
0.115000002 -0.0401517227 0
0.111666664 -0.0401517227 0
[...]
POINT_DATA 961
SCALARS Temp float 1
LOOKUP_TABLE default
561.1137829452971
519.3899151405532
481.06081031061245
446.7320318477655
416.53258949348015
390.427199742368
368.25169267106867
349.74180636377713
334.560878484896
322.32828350725913
312.6455474204116
305.1188477883436
299.37735514383945
295.0867624986171
291.95819673750805
289.7535190341182
288.28765810983896
287.42923180372077
287.1002631684375
287.2757576271352
287.98347248328724
289.303873939729
291.36988136677263
294.36578858001735
298.52442284549255
304.121943155975
311.46966753761296
320.9032382898281
332.7712677332866
347.4306146101419
365.3916956830965
519.3899267940601
477.68840307207836
440.0664472678815
406.6688627370283
377.5316234814364
352.54832183072654
331.4965217083772
314.06475607403047
299.88170694793166
288.54396712042785
279.6413511066054
272.77786730473093
267.58831205714563
263.74976739250707
260.9890281154326
259.0864412751239
257.87743423633884
257.252652102256
257.15755740249733
257.5921010293218
258.61060926449585
260.32168964011305
262.88764595219317
266.52256568886116
271.4882226167814
278.08720083300574
286.6527251689282
297.5360748131928
311.09297282994436
327.6763955610744
347.43063404157357
481.06076392972943
440.06642305916955
403.35154982309143
371.0052497373386
342.98425826931015
319.12093089675847
299.1448480820181
282.709218660037
269.41955242453724
258.86050397489487
250.6193079238905
244.3051552667192
239.56371749110227
236.0869321167041
233.61904492431006
231.9594901869357
230.96391193201785
230.54411836264734
230.66779706531906
231.35834452912923
232.6948343435038
234.81174147033542
237.89778987834217
242.19295826917272
247.98293207918363
255.59019504264057
265.3615067350212
277.65187421298543
292.80352913949446
311.0929642027929
332.7712799975904
446.7319676905838
406.6688230514814
371.00524598015903
339.77202701625356
312.8681769076463
290.0785988827654
271.0970383796771
255.55346567516094
243.04113973288517
233.14195882261706
225.44794951053808
219.57876036182813
215.19421053725833
212.00283389398734
209.76673176996476
208.30395993082982
207.48930984829488
207.25433433828354
207.58726717577008
208.53301589717168
210.19309354636005
212.72501153229322
216.3403125019462
221.30033360915348
227.90895551402014
236.5014530445808
247.42939898206737
261.0406266876317
277.651892010138
297.5360879309652
320.90322994192803
416.5325202345053
377.53157947936074
342.9842297496894
312.86827693294356
287.0372038258858
265.2411440291526
247.1506416747152
232.38334381345797
220.52969995320342
211.17607737922302
203.9245775455594
198.4085376509352
194.30359763495875
191.33516210709124
189.28259490028972
187.98136269557043
187.32381752508132
187.259459833364
187.7950674747617
188.9947875278368
190.97990316781505
193.92770108385199
198.06851444059717
203.68017434064598
211.078915039278
220.6061830394218
232.61120325709095
247.42939105764853
265.36150089429293
286.65272483461337
311.4696721787057
390.4271215297423
352.54837532764805
319.1210005214774
290.07855963245885
265.2411273267629
244.33575495213432
227.02098664978294
212.91155160223582
201.60233442988866
192.68947261261138
185.7884206059576
180.54769392613164
176.65903924525685
173.8639927417817
171.9578697388052
170.79186124990113
170.274009808523
170.36973967598522
171.10216460549148
172.55216924954678
174.85789046609548
178.21289264615882
182.86217697883092
189.09525953655938
197.23538315227492
207.62482937797463
220.6061778885379
236.50145476603774
255.59020113983053
278.0871777407496
304.12194183483723
368.25171073147584
331.4965554881365
299.14490903299446
271.09698966511917
247.15061759952675
227.02097796385473
210.36376270182882
196.79821099489502
185.9287395091193
177.36453615687097
170.73587167847145
165.7066863557848
161.9840086567032
159.3241352970198
157.536594321386
156.48636564847283
156.09517004970326
156.3422264375713
157.26467413490636
158.95753728331943
161.57279214071428
165.31676915317445
170.44518512897437
177.25490051877767
186.07187849233696
197.2353772505118
211.0789032787027
227.90893895767607
247.9829343411742
271.48822214798173
298.5244303814736
349.741824627217
314.06478767607695
282.70914512123375
255.55341583768066
232.3833503131988
212.91157385892743
196.7982039328391
183.67205277172664
173.1503457855826
164.85684295364177
158.43668742202001
153.56847968090423
149.97304938538358
147.4196812662498
145.73016616089137
144.78128750538303
144.50640796356566
144.89640583598563
146.00013049328453
147.92416051247326
150.83136898015297
154.93758821937308
160.50570322085
167.83631345366823
177.25489603964877
189.09525238656755
203.68017925208548
221.30033596320501
242.19294234369767
266.5225455010593
294.36577661608175
334.5608870928412
299.88174280965177
269.41951250921227
243.04112427693585
220.5297069441116
201.6023139737335
185.9287310203946
173.15036864230817
162.89877806157386
154.8123294293168
148.55025153139394
143.8042668658142
140.30722131760206
137.83944864372117
136.23301546981583
135.37456537241331
135.2071298321082
135.73119514726133
137.00510375344763
139.14453489686437
142.32054162801404
146.75557935886062
152.71674617615056
160.5057077750582
170.44518962527428
182.86217856715157
198.06851341628501
216.3403076591537
237.89779244089397
262.88765569954444
291.36990086458815
322.3283326983817
288.54390291400176
258.8604756052692
233.1419496962974
211.17608796627718
192.68947208786184
177.36454765421078
164.856834340146
154.8123228419633
146.8829944548415
140.7407250287765
136.0884748916757
132.66917029362494
130.2722394036574
128.73815931618205
127.96160849320059
127.89344592167008
128.54186071377728
129.97264548148613
132.30836320013788
135.72591296367355
140.45197496983243
146.75557563851214
154.9375883460308
165.31676774671527
178.21288984259624
193.9276973121283
212.72499135069984
234.81172604698384
260.3216724338306
289.30386600602867
312.6456217864615
279.64129891024123
250.6192870397387
225.4479620931332
203.92456116204082
185.7884212285525
170.7358841858418
158.43669057901263
148.550258597847
140.74072385154955
134.6906723323056
130.112372412715
126.7569137683793
124.42096651541381
122.95171207218652
122.25020345647201
122.27348630544992
123.03575002369654
124.60844148908589
127.11910748167884
130.74858316695418
135.7259206114057
142.32054294391554
150.83136557020083
161.57278669559875
174.85789050293855
190.97990087102093
210.19309119613567
232.69483990191935
258.6106166633092
287.9834605850221
305.1187879973711
272.77783843735926
244.30515506759465
219.57877634080285
198.40852189977758
180.54770565720088
165.7066777856106
153.5684826697
143.8042558993861
136.0884738282019
130.11238097936769
125.59564022420689
122.29568831322837
120.01481067577869
118.60538164980495
117.97337145789592
118.08059394912866
118.94578187537999
120.64453376295218
123.30787602821805
127.11911416773242
132.30836750600918
139.14453279184394
147.92417030487294
158.95754758946495
172.55218153161215
188.99478086356916
208.53300819920372
231.35834739131803
257.59210418696426
287.2757713486455
299.3773216655148
267.58830035708456
239.56373147233205
215.19419200930287
194.30360019276995
176.6590588049759
161.98400505861818
149.9730566692031
140.30721774527527
132.66917550858307
126.75690920144017
122.29568516239469
119.04764006130212
116.81926111697813
115.46681004852691
114.89997531824424
115.0841566894091
116.0414588463553
117.85045298799254
120.6445264116651
124.60843939530102
129.97265170687612
137.0050963797606
146.00012811149074
157.26467067182523
171.1021603039428
187.79506561746103
207.58726555262558
230.6678047006802
257.15753472721775
287.1002674288892
295.08673188187555
263.7497655780281
236.08695759149995
212.00281725967005
191.3351678654517
173.86397618972478
159.3241385616619
147.41967341726658
137.83944587879677
130.27224638388242
124.42096149540801
120.01481204778453
116.81926032260839
114.64380190895837
113.34750681437325
112.8428320216145
113.0978454573397
114.1371464827848
116.0414575880132
118.94578416281708
123.03575020348335
128.54186473666485
135.7311945926029
144.89641207231242
156.34223583868302
170.36973437756237
187.25945398402325
207.25432822818368
230.544120322585
257.25265565401384
287.4292304609087
291.9581913039922
260.98904438584435
233.61902574633064
209.7667299321844
189.28261806429822
171.95786716566698
157.53660675286963
145.73016403480614
136.23301461780054
128.73815792004615
122.9517125892866
118.6053838926324
115.46680895676397
113.3475084892816
112.10856913458227
111.66450292358009
111.98542173807711
113.09784444283268
115.08415450613312
118.08059177859589
122.27348663528463
127.89344361187983
135.20712251375056
144.50640618284936
156.0951675697098
170.27400847017867
187.32381624675267
207.48930961512514
230.963893677949
257.87743112651475
288.28765062010143
289.75351744416355
259.0864619296773
231.95947735776562
208.30396552790822
187.9813444333393
170.79186165324032
156.48635308448334
144.78128951061205
135.37456996379802
127.96160787309071
122.25020492675336
117.97336672149383
114.89997625397504
112.84283011536735
111.66450302707504
111.28112150333318
111.66450364970189
112.84283096427404
114.89997828387472
117.97336896703005
122.25020260478904
127.96161247199902
135.3745659097845
144.78129536229997
156.48635987406496
170.79185599818177
187.98135830955422
208.3039553157163
231.95949557531634
259.0864294133761
289.75351981540285
288.28768056058595
257.8774107356743
230.9639195478851
207.4893338518433
187.32381299828367
170.27402474349014
156.09516872676133
144.50641562433938
135.20712276343264
127.8934505759624
122.27349270846258
118.0805922022083
115.08416060542072
113.09784529301245
111.98542242672838
111.66450412631458
112.10857014901701
113.34750600081709
115.46681030169513
118.60538084607737
122.95170872003106
128.7381591691302
136.23300831850491
145.73016430737326
157.53659414500729
171.95787090129775
189.28259775722557
209.76670757197402
233.619042522689
260.98901164334814
291.95819147968353
287.4292630315738
257.2526351575165
230.54413142381384
207.25431144576706
187.2594599894115
170.36972572296975
156.34222840966407
144.8964167501462
135.73118871684014
128.54186758942805
123.03574719499123
118.94578144537422
116.04145624076828
114.1371453988366
113.09784647599412
112.84283223688239
113.34750721013575
114.64380331866005
116.81926188272512
120.01481019417196
124.4209649676147
130.27224292902196
137.83945036986032
147.4196785811628
159.32413330803786
173.86398722082996
191.335157813768
212.00283118260316
236.08692419265537
263.7497615488787
295.0867622125718
287.10023111257755
257.1575475007554
230.6678165111152
207.58724789908237
187.79507258093358
171.1021515566391
157.2646736428683
146.0001214594264
137.00509937814192
129.97265474198142
124.60843617615915
120.64453157424899
117.85045158299435
116.04145775761275
115.084156541873
114.89997534191548
115.46680857742305
116.81926234818394
119.04763852780655
122.29568356519029
126.75691216423546
132.66917334464438
140.3072218157722
149.9730512428675
161.98401452015304
176.65904902517755
194.3035897439813
215.19421659568405
239.5637125824275
267.58831024398813
299.3773652783149
287.2757513754697
257.5921158766497
231.35832720102633
208.53301426370214
188.99477015687586
172.5521724243561
158.95755294770532
147.92416311560515
139.1445362661546
132.3083637227456
127.11911075211717
123.30787417305683
120.64453219364329
118.94578390941889
118.08059382995299
117.9733714658084
118.60538253382343
120.01481165697984
122.29568687763198
125.59564276622419
130.11237809769403
136.0884772228923
143.80425973367605
153.56847792083386
165.70668645346885
180.54769619664313
198.40853291693648
219.5787451288642
244.30514962308072
272.7778639410485
305.118842074316
287.98347136344563
258.61062763108333
232.69481861247328
210.19309833221962
190.97989034506173
174.85789383439746
161.57277869630065
150.83136919497747
142.32054666922284
135.7259166619304
130.74858980721856
127.11910568210168
124.60844002540806
123.03574952153396
122.27348590820034
122.25020294949778
122.95171286807184
124.4209653591071
126.75691257369724
130.11237455366836
134.69067047021665
140.74072687847234
148.5502538544624
158.4366980578223
170.73587533713123
185.78841177632637
203.92458217901068
225.44794539073655
250.61929793789582
279.64134463022367
312.6455394610075
289.30387453622217
260.32164742829747
234.81173190508488
212.7249787615052
193.92768673191887
178.21289604078044
165.31675940876985
154.93759258120286
146.75557118325924
140.45197094332272
135.7259106551488
132.3083611762591
129.9726485193141
128.54186035618574
127.89344562932236
127.96160896431245
128.73815984045928
130.27223834558916
132.66917211257945
136.0884725445354
140.74072759007854
146.8829972564467
154.81231867711318
164.85684120589173
177.3645392257184
192.6894814344059
211.17606077873904
233.14194696043072
258.86050521915297
288.5439741945375
322.32829514371787
291.36993077367384
262.88765226559286
237.8978197920045
216.3403140400535
198.0685342969962
182.8621852481111
170.44520877566092
160.50572618734762
152.7167547563878
146.75560005353776
142.32055158215866
139.14454477512123
137.00511425892918
135.73120537836482
135.20714085803232
135.37457625377806
136.23302468735443
137.83945745405293
140.30723197780495
143.8042738114364
148.5502615260397
154.8123322264342
162.89878977393002
173.15036539635068
185.92872602406905
201.60233405820657
220.52969318378095
243.04113560998613
269.4195585784874
299.8816710758101
334.5608570466012
294.36577322032366
266.52257503546787
242.19294974600237
221.30034420354815
203.68020511853754
189.09526088983856
177.25491793655527
167.83632456607137
160.50571417978676
154.93760048306456
150.8313810883639
147.92417865961653
146.00014387792933
144.89641895562383
144.5064214903338
144.78130076614485
145.73017818324382
147.41969490183925
149.97305937150546
153.5684928899765
158.43669995412702
164.85684896236413
173.1503597878478
183.67205263456887
196.79821771096144
212.91155433173932
232.38335139778104
255.55344558148954
282.70921160281927
314.06474805593626
349.74181062773306
298.524420136202
271.4882430983129
247.98293297490687
227.90895439390655
211.0789036962521
197.2353923057893
186.0718933047348
177.25490464014982
170.44520353090022
165.3167755403988
161.57279866145376
158.9575446168209
157.264681299453
156.34223554829543
156.09517832667999
156.4863729507155
157.53660152495448
159.32414390739098
161.9840146178111
165.70669495527778
170.73587477341727
177.36454687725552
185.92873797571715
196.79820842133816
210.36378214130562
227.0209679772702
247.1506302638506
271.0970333877572
299.1448415414618
331.4965236029224
368.25171402901304
304.12195072640174
278.087163846497
255.59018947387756
236.50146337005688
220.60616867859946
207.6248356172906
197.23537815942603
189.09525495489012
182.86217417206987
178.2128900225461
174.85789524800686
172.5521687172398
171.10216399900466
170.3697396441083
170.27400975774194
170.79186078981465
171.95787062793596
173.8639912105486
176.65904068463135
180.54769520405208
185.78841716125334
192.68947642711012
201.60232686039464
212.91155660231112
227.02096282288227
244.33574956619563
265.24114730141457
290.07861132849797
319.12095013955457
352.54834057993287
390.4271205646379
311.46966734743313
286.6526985011606
265.36149349487914
247.4293683016354
232.61119669511604
220.60617657212143
211.07889728728165
203.68017242538997
198.06849968635223
193.92768665346773
190.9798896965858
188.9947739916232
187.79505674638762
187.25944784057498
187.32380508658366
187.9813504454722
189.2825838152464
191.3351492254762
194.30358719449399
198.4085231060868
203.92456974019387
211.17605952494134
220.52968163680637
232.3833448394987
247.15061638863259
265.2411382683989
287.0372243509919
312.8681909504947
342.98416988062735
377.53154180362276
416.5325086932324
320.90324589635924
297.53610634712857
277.6519316350222
261.04064727958536
247.42943515549862
236.50147693795935
227.90897954385972
221.30035913681996
216.34033802746825
212.7250449820474
210.19312109099394
208.53304321224797
207.587294878416
207.25436189247938
207.48933719800036
208.30398800330522
209.76675770727857
212.0028619022666
215.19423784241988
219.5787831131535
225.44797759716286
233.141975908295
243.04116625832233
255.55346451336172
271.0970509206696
290.0786305363213
312.86823213458405
339.771979785457
371.00520192246086
406.6687945691115
446.7319731119263
332.7712923759485
311.0929975046854
292.80354574930357
277.6519064811586
265.3615384558436
255.59021471878893
247.9829677828336
242.19298058051066
237.897812370526
234.81176474019742
232.69485736157336
231.3583705843637
230.6678214220096
230.54414233150982
230.96393593342944
231.95951476908223
233.61906768623572
236.08695646022636
239.5637377804762
244.30518053642515
250.61932334649737
258.86051768761365
269.4195815117302
282.70922154622207
299.1448653295828
319.1209675314383
342.984189965682
371.00519650633294
403.35150436185637
440.06638843557386
481.06075967876575
347.43063738594225
327.6764177925149
311.0929746449033
297.5360916690303
286.6527296172884
278.0872054033523
271.4882286596496
266.52257183557293
262.88766034701604
260.3216980786642
258.6106174202407
257.59210962460895
257.15756596547
257.25266080748725
257.87744354641484
259.086448946054
260.98903772176453
263.74977647524116
267.5883174183552
272.77787756132244
279.6413516609
288.5439761802142
299.88169083348623
314.0647518889477
331.4965336438773
352.54835333508856
377.53155640109367
406.66879213765776
440.06637942207163
477.68834393117663
519.3898382246005
365.39171110324787
347.4306085560598
332.77127605744164
320.9032458127396
311.4696627279434
304.12195410799575
298.52442044071205
294.3657870417656
291.36988048642837
289.30387219163913
287.9834740745576
287.27575739762665
287.10026298293405
287.42923160454137
288.28765843939885
289.7535179939864
291.958196825309
295.08675952482906
299.37735664026576
305.1188405044178
312.6455387357077
322.3282891762771
334.56086058408175
349.7418009150855
368.25170360015886
390.42711273008644
416.5325152857553
446.7319593250351
481.0607357419141
519.389822311611
561.1134201459965
