# vtk DataFile Version 2.0
Unstructured Grid Example
ASCII
DATASET UNSTRUCTURED_GRID

POINTS 961 float
0.150000006 -0.00839745998 0
0.146666661 -0.00839745998 0
0.143333331 -0.00839745998 0
0.140000001 -0.00839745998 0
0.13666667 -0.00839745998 0
0.13333334 -0.00839745998 0
0.129999995 -0.00839745998 0
0.126666665 -0.00839745998 0
0.123333335 -0.00839745998 0
0.119999997 -0.00839745998 0
0.116666667 -0.00839745998 0
0.113333337 -0.00839745998 0
0.109999999 -0.00839745998 0
0.106666669 -0.00839745998 0
0.103333332 -0.00839745998 0
0.100000001 -0.00839745998 0
0.0966666639 -0.00839745998 0
0.0933333337 -0.00839745998 0
0.0900000036 -0.00839745998 0
0.086666666 -0.00839745998 0
0.0833333358 -0.00839745998 0
0.0799999982 -0.00839745998 0
0.0766666681 -0.00839745998 0
0.0733333305 -0.00839745998 0
0.0700000003 -0.00839745998 0
0.0666666701 -0.00839745998 0
0.0633333325 -0.00839745998 0
0.0599999987 -0.00839745998 0
0.0566666685 -0.00839745998 0
0.0533333346 -0.00839745998 0
0.0500000007 -0.00839745998 0
0.148333326 -0.0112842107 0
0.144999996 -0.0112842107 0
0.141666666 -0.0112842107 0
0.138333336 -0.0112842107 0
0.135000005 -0.0112842107 0
0.13166666 -0.0112842107 0
0.12833333 -0.0112842107 0
0.125 -0.0112842107 0
0.12166667 -0.0112842107 0
0.118333332 -0.0112842107 0
0.115000002 -0.0112842107 0
0.111666664 -0.0112842107 0
0.108333334 -0.0112842107 0
0.104999997 -0.0112842107 0
0.101666667 -0.0112842107 0
0.0983333364 -0.0112842107 0
0.0949999988 -0.0112842107 0
0.0916666687 -0.0112842107 0
0.088333331 -0.0112842107 0
0.0850000009 -0.0112842107 0
0.0816666633 -0.0112842107 0
0.0783333331 -0.0112842107 0
0.075000003 -0.0112842107 0
0.0716666654 -0.0112842107 0
0.0683333352 -0.0112842107 0
0.0649999976 -0.0112842107 0
0.0616666675 -0.0112842107 0
0.0583333336 -0.0112842107 0
0.0549999997 -0.0112842107 0
0.0516666658 -0.0112842107 0
0.0483333319 -0.0112842107 0
0.146666661 -0.0141709624 0
0.143333331 -0.0141709624 0
0.140000001 -0.0141709624 0
0.13666667 -0.0141709624 0
0.13333334 -0.0141709624 0
0.129999995 -0.0141709624 0
0.126666665 -0.0141709624 0
0.123333335 -0.0141709624 0
0.119999997 -0.0141709624 0
0.116666667 -0.0141709624 0
0.113333337 -0.0141709624 0
0.109999999 -0.0141709624 0
0.106666669 -0.0141709624 0
0.103333332 -0.0141709624 0
0.100000001 -0.0141709624 0
0.0966666639 -0.0141709624 0
0.0933333337 -0.0141709624 0
0.0900000036 -0.0141709624 0
0.086666666 -0.0141709624 0
0.0833333358 -0.0141709624 0
0.0799999982 -0.0141709624 0
0.0766666681 -0.0141709624 0
0.0733333305 -0.0141709624 0
0.0700000003 -0.0141709624 0
0.0666666701 -0.0141709624 0
0.0633333325 -0.0141709624 0
0.0599999987 -0.0141709624 0
0.0566666685 -0.0141709624 0
0.0533333346 -0.0141709624 0
0.0500000007 -0.0141709624 0
0.0466666669 -0.0141709624 0
0.144999996 -0.0170577131 0
0.141666666 -0.0170577131 0
0.138333336 -0.0170577131 0
0.135000005 -0.0170577131 0
0.13166666 -0.0170577131 0
0.12833333 -0.0170577131 0
0.125 -0.0170577131 0
0.12166667 -0.0170577131 0
0.118333332 -0.0170577131 0
0.115000002 -0.0170577131 0
0.111666664 -0.0170577131 0
0.108333334 -0.0170577131 0
0.104999997 -0.0170577131 0
0.101666667 -0.0170577131 0
0.0983333364 -0.0170577131 0
0.0949999988 -0.0170577131 0
0.0916666687 -0.0170577131 0
0.088333331 -0.0170577131 0
0.0850000009 -0.0170577131 0
0.0816666633 -0.0170577131 0
0.0783333331 -0.0170577131 0
0.075000003 -0.0170577131 0
0.0716666654 -0.0170577131 0
0.0683333352 -0.0170577131 0
0.0649999976 -0.0170577131 0
0.0616666675 -0.0170577131 0
0.0583333336 -0.0170577131 0
0.0549999997 -0.0170577131 0
0.0516666658 -0.0170577131 0
0.0483333319 -0.0170577131 0
0.0450000018 -0.0170577131 0
0.143333331 -0.0199444648 0
0.140000001 -0.0199444648 0
0.13666667 -0.0199444648 0
0.13333334 -0.0199444648 0
0.129999995 -0.0199444648 0
0.126666665 -0.0199444648 0
0.123333335 -0.0199444648 0
0.119999997 -0.0199444648 0
0.116666667 -0.0199444648 0
0.113333337 -0.0199444648 0
0.109999999 -0.0199444648 0
0.106666669 -0.0199444648 0
0.103333332 -0.0199444648 0
0.100000001 -0.0199444648 0
0.0966666639 -0.0199444648 0
0.0933333337 -0.0199444648 0
0.0900000036 -0.0199444648 0
0.086666666 -0.0199444648 0
0.0833333358 -0.0199444648 0
0.0799999982 -0.0199444648 0
0.0766666681 -0.0199444648 0
0.0733333305 -0.0199444648 0
0.0700000003 -0.0199444648 0
0.0666666701 -0.0199444648 0
0.0633333325 -0.0199444648 0
0.0599999987 -0.0199444648 0
0.0566666685 -0.0199444648 0
0.0533333346 -0.0199444648 0
0.0500000007 -0.0199444648 0
0.0466666669 -0.0199444648 0
0.043333333 -0.0199444648 0
0.141666666 -0.0228312165 0
0.138333336 -0.0228312165 0
0.135000005 -0.0228312165 0
0.13166666 -0.0228312165 0
0.12833333 -0.0228312165 0
0.125 -0.0228312165 0
0.12166667 -0.0228312165 0
0.118333332 -0.0228312165 0
0.115000002 -0.0228312165 0
0.111666664 -0.0228312165 0
0.108333334 -0.0228312165 0
0.104999997 -0.0228312165 0
0.101666667 -0.0228312165 0
0.0983333364 -0.0228312165 0
0.0949999988 -0.0228312165 0
0.0916666687 -0.0228312165 0
0.088333331 -0.0228312165 0
0.0850000009 -0.0228312165 0
0.0816666633 -0.0228312165 0
0.0783333331 -0.0228312165 0
0.075000003 -0.0228312165 0
0.0716666654 -0.0228312165 0
0.0683333352 -0.0228312165 0
0.0649999976 -0.0228312165 0
0.0616666675 -0.0228312165 0
0.0583333336 -0.0228312165 0
0.0549999997 -0.0228312165 0
0.0516666658 -0.0228312165 0
0.0483333319 -0.0228312165 0
0.0450000018 -0.0228312165 0
0.0416666679 -0.0228312165 0
0.140000001 -0.0257179681 0
0.13666667 -0.0257179681 0
0.13333334 -0.0257179681 0
0.129999995 -0.0257179681 0
0.126666665 -0.0257179681 0
0.123333335 -0.0257179681 0
0.119999997 -0.0257179681 0
0.116666667 -0.0257179681 0
0.113333337 -0.0257179681 0
0.109999999 -0.0257179681 0
0.106666669 -0.0257179681 0
0.103333332 -0.0257179681 0
0.100000001 -0.0257179681 0
0.0966666639 -0.0257179681 0
0.0933333337 -0.0257179681 0
0.0900000036 -0.0257179681 0
0.086666666 -0.0257179681 0
0.0833333358 -0.0257179681 0
0.0799999982 -0.0257179681 0
0.0766666681 -0.0257179681 0
0.0733333305 -0.0257179681 0
0.0700000003 -0.0257179681 0
0.0666666701 -0.0257179681 0
0.0633333325 -0.0257179681 0
0.0599999987 -0.0257179681 0
0.0566666685 -0.0257179681 0
0.0533333346 -0.0257179681 0
0.0500000007 -0.0257179681 0
0.0466666669 -0.0257179681 0
0.043333333 -0.0257179681 0
0.0399999991 -0.0257179681 0
0.138333336 -0.0286047198 0
0.135000005 -0.0286047198 0
0.13166666 -0.0286047198 0
0.12833333 -0.0286047198 0
0.125 -0.0286047198 0
0.12166667 -0.0286047198 0
0.118333332 -0.0286047198 0
0.115000002 -0.0286047198 0
0.111666664 -0.0286047198 0
0.108333334 -0.0286047198 0
0.104999997 -0.0286047198 0
0.101666667 -0.0286047198 0
0.0983333364 -0.0286047198 0
0.0949999988 -0.0286047198 0
0.0916666687 -0.0286047198 0
0.088333331 -0.0286047198 0
0.0850000009 -0.0286047198 0
0.0816666633 -0.0286047198 0
0.0783333331 -0.0286047198 0
0.075000003 -0.0286047198 0
0.0716666654 -0.0286047198 0
0.0683333352 -0.0286047198 0
0.0649999976 -0.0286047198 0
0.0616666675 -0.0286047198 0
0.0583333336 -0.0286047198 0
0.0549999997 -0.0286047198 0
0.0516666658 -0.0286047198 0
0.0483333319 -0.0286047198 0
0.0450000018 -0.0286047198 0
0.0416666679 -0.0286047198 0
0.038333334 -0.0286047198 0
0.13666667 -0.0314914696 0
0.13333334 -0.0314914696 0
0.129999995 -0.0314914696 0
0.126666665 -0.0314914696 0
0.123333335 -0.0314914696 0
0.119999997 -0.0314914696 0
0.116666667 -0.0314914696 0
0.113333337 -0.0314914696 0
0.109999999 -0.0314914696 0
0.106666669 -0.0314914696 0
0.103333332 -0.0314914696 0
0.100000001 -0.0314914696 0
0.0966666639 -0.0314914696 0
0.0933333337 -0.0314914696 0
0.0900000036 -0.0314914696 0
0.086666666 -0.0314914696 0
0.0833333358 -0.0314914696 0
0.0799999982 -0.0314914696 0
0.0766666681 -0.0314914696 0
0.0733333305 -0.0314914696 0
0.0700000003 -0.0314914696 0
0.0666666701 -0.0314914696 0
0.0633333325 -0.0314914696 0
0.0599999987 -0.0314914696 0
0.0566666685 -0.0314914696 0
0.0533333346 -0.0314914696 0
0.0500000007 -0.0314914696 0
0.0466666669 -0.0314914696 0
0.043333333 -0.0314914696 0
0.0399999991 -0.0314914696 0
0.0366666652 -0.0314914696 0
0.135000005 -0.0343782231 0
0.13166666 -0.0343782231 0
0.12833333 -0.0343782231 0
0.125 -0.0343782231 0
0.12166667 -0.0343782231 0
0.118333332 -0.0343782231 0
0.115000002 -0.0343782231 0
0.111666664 -0.0343782231 0
0.108333334 -0.0343782231 0
0.104999997 -0.0343782231 0
0.101666667 -0.0343782231 0
0.0983333364 -0.0343782231 0
0.0949999988 -0.0343782231 0
0.0916666687 -0.0343782231 0
0.088333331 -0.0343782231 0
0.0850000009 -0.0343782231 0
0.0816666633 -0.0343782231 0
0.0783333331 -0.0343782231 0
0.075000003 -0.0343782231 0
0.0716666654 -0.0343782231 0
0.0683333352 -0.0343782231 0
0.0649999976 -0.0343782231 0
0.0616666675 -0.0343782231 0
0.0583333336 -0.0343782231 0
0.0549999997 -0.0343782231 0
0.0516666658 -0.0343782231 0
0.0483333319 -0.0343782231 0
0.0450000018 -0.0343782231 0
0.0416666679 -0.0343782231 0
0.038333334 -0.0343782231 0
0.0350000001 -0.0343782231 0
0.13333334 -0.0372649729 0
0.129999995 -0.0372649729 0
0.126666665 -0.0372649729 0
0.123333335 -0.0372649729 0
0.119999997 -0.0372649729 0
0.116666667 -0.0372649729 0
0.113333337 -0.0372649729 0
0.109999999 -0.0372649729 0
0.106666669 -0.0372649729 0
0.103333332 -0.0372649729 0
0.100000001 -0.0372649729 0
0.0966666639 -0.0372649729 0
0.0933333337 -0.0372649729 0
0.0900000036 -0.0372649729 0
0.086666666 -0.0372649729 0
0.0833333358 -0.0372649729 0
0.0799999982 -0.0372649729 0
0.0766666681 -0.0372649729 0
0.0733333305 -0.0372649729 0
0.0700000003 -0.0372649729 0
0.0666666701 -0.0372649729 0
0.0633333325 -0.0372649729 0
0.0599999987 -0.0372649729 0
0.0566666685 -0.0372649729 0
0.0533333346 -0.0372649729 0
0.0500000007 -0.0372649729 0
0.0466666669 -0.0372649729 0
0.043333333 -0.0372649729 0
0.0399999991 -0.0372649729 0
0.0366666652 -0.0372649729 0
0.0333333351 -0.0372649729 0
0.13166666 -0.0401517227 0
0.12833333 -0.0401517227 0
0.125 -0.0401517227 0
0.12166667 -0.0401517227 0
0.118333332 -0.0401517227 0
0.115000002 -0.0401517227 0
0.111666664 -0.0401517227 0
[...]
POINT_DATA 961
SCALARS Temp float 1
LOOKUP_TABLE default
594.9738462160423
555.1283647830522
518.072326678579
484.3375143464318
454.08096874245774
427.3355828541441
404.03375007311786
384.0251934384766
367.09389963466265
352.9768692833081
341.3824039916614
332.00714457144215
324.55157392685936
318.733103386361
314.29643558615027
311.02166622048827
308.7299573628324
307.2874574851972
306.6076564117859
306.65261223790054
307.4331906950496
309.0083785699509
311.48354991044033
315.0075386813265
319.76814802371837
325.98613550216237
333.90756682217716
343.7951574090703
355.9206360773538
370.56428094503707
388.148253495283
555.1283757632357
515.1116304083222
478.46264462430076
445.34622019440576
415.85037036261565
389.9544667442562
367.54517497091047
348.432503801366
332.36849761631004
319.06592045348145
308.2167086653303
299.50861235998127
292.64010858997017
287.3323987555985
283.33907800054715
280.45314836238344
278.5120249597398
277.4007768996461
277.0539682045904
277.45645191742426
278.64316961760915
280.6979449900116
283.7511382400143
287.97586342476797
293.58253518095097
300.8117785559623
309.9256132914295
321.1980120174095
334.9059705525441
351.32748766532626
370.56430009376515
518.072281399427
478.4626206147971
442.4125254699452
410.0480140975998
381.3969633905661
356.39048579812464
334.8749360014619
316.6277595601601
301.3763639603073
288.81689031915414
278.6318861648987
270.506542881771
264.1425181802688
259.26898352635783
255.65136700593547
253.09755535898773
251.4622679020762
250.64974841872066
250.6152464282697
251.365420522696
252.95773053404722
255.49870239584354
259.1408940812504
264.07817852957845
270.5392996938372
278.7794447212763
289.0699819011471
301.68662327882896
316.8945180964138
334.9059621349421
355.92064847634833
484.3374507583581
445.346180166006
410.0480097858764
378.5257461404888
350.7617817455857
326.64737521200044
305.9957728223842
288.5596969011869
274.04955360853825
262.15185577724344
252.54609110863456
244.92011054040026
238.98270386274706
234.4739520151259
231.17291434932986
228.90328818692447
227.53722574525764
226.99765003480653
227.25942999147094
228.34945032259847
230.34558311223273
233.37441659634285
237.60743359115753
243.25534782642328
250.5605061008186
259.7869625874537
271.2085439517442
285.09395824178506
301.6866411552539
321.19802496227965
343.79514918551115
454.08089857356504
415.850324928964
381.39693344603216
350.7618855073982
323.88914720866774
300.6377608025224
280.7961890769943
264.100000341867
250.24984904303747
238.9287529516577
229.81834900783002
222.61305244939064
217.0316628869534
212.82685323840408
209.792154726665
207.7671233766626
206.64073869859476
206.3534970531653
206.8983078431913
208.32025878251764
210.71515748770452
214.22666539962862
219.04163535802965
225.38353597721874
233.50358010393634
243.66947531453127
256.1518822095233
271.2085359830576
289.06997595699454
309.9256131865019
333.9075712091725
427.33550226772667
389.95452232287886
356.3905580489011
326.6473352924328
300.6377435876663
278.1960021141431
259.09364770547984
243.05627928804216
229.78093204012134
218.95233977770292
210.25825091604395
203.40230317772972
198.11503705656835
194.16241589836173
191.35242791109607
189.5398312939969
188.62930843329565
188.5773769035014
189.39305213637286
191.13730706669875
193.92118198774097
197.90226623906602
203.27924514142555
210.28437625873977
219.17346832109936
230.21374461391818
243.6694698836159
259.78696436113376
278.7794505529898
300.8117554363522
325.9861350706013
404.03376948379844
367.5452102482614
334.8749987627697
305.9957226333006
280.79616344669205
259.0936380631934
240.64967668124237
225.18624470005247
212.40173003500877
201.9865364096053
193.63715249410382
187.06813362980904
182.02237929706143
178.27909436169224
175.6600520250185
174.03404526483467
173.3199520802262
173.4884707007273
174.56258418003878
176.61670883004496
179.77434740555873
184.20391371603463
190.1125994306021
197.73792700633382
207.33695563068082
219.1734621737548
233.50356786868815
250.5604888892802
270.53930268290014
293.5825350377118
319.7681552875011
384.0252120673458
348.43253585329666
316.62768375496177
288.55964426512014
264.1000086821054
243.05630389094176
225.18623664790516
210.21307238004727
197.84049499564173
187.76728054738257
179.70012624513328
173.36521594651722
168.51764178836592
164.94916273065337
162.49417731857173
161.03405262384476
160.5001226991855
160.87528137942383
162.194268171409
164.54250513712142
168.05328036698597
172.90300485901938
179.30442883882586
187.49745131845344
197.7379221359881
210.28436839517119
225.3835414790453
243.255350372679
264.0781626590198
287.9758432716641
315.00752636550527
367.0939083895577
332.3685336749378
301.3763263483581
274.0495395483203
250.2498572931847
229.78090945975458
212.40172010560505
197.84052176971002
185.80898576658444
176.01570873889105
168.17828594111637
162.03430361317015
157.3503596101673
153.92963715564764
151.61769403600874
150.30682769357634
149.93898761634668
150.5072723006513
152.05602575505202
154.6793677855267
158.51792461593823
163.75364593206095
170.6024170393895
179.30443383876724
190.1126048190278
203.27924728835768
219.04163451667085
237.60742872588324
259.14089632428704
283.7511485335805
311.48356940929614
352.9769209521322
319.0658575264247
288.8168614967626
262.1518455025986
238.92876245685085
218.95233979902474
201.98654919623237
187.76727004216613
176.01570069250064
166.45069843422885
158.80065788195748
152.81376532194503
148.26700269108653
144.97354913190216
142.78855500057122
141.613543023097
141.39925298226183
142.1470834506985
143.90898485523303
146.78569810849044
150.92311874589566
156.50670832785238
163.7536418330576
172.90300515228293
184.20391209282184
197.90226297383097
214.22666086444355
233.3743964472746
255.49868716576754
280.69792794012983
309.00837078636454
341.3824825484168
308.2166571068594
278.6318638490414
252.5461061966086
229.81833215046817
210.25825151311886
193.63716575111522
179.70013056227376
168.1782945404769
158.80065639378273
151.30554771224405
145.45064420949487
141.02193102995653
137.8410120172948
135.7710334029043
134.7210701412936
134.64896200646882
135.56267055346132
137.51999381661668
140.62652474843154
145.031757871194
150.92312783591714
158.51792612529022
168.05327660212765
179.77434133858858
193.9211825086896
210.71515550185248
230.34558077079342
252.95773606104976
278.6431767077785
307.4331792264458
332.0070864027485
299.50858642508297
270.5065444084588
244.92012793374727
222.613035680167
203.40231763259993
187.06812488726322
173.36521968458277
162.03429093683678
152.81376389616358
145.45065521983457
139.71075174093937
135.3875057482921
132.30942080627943
130.34609972754077
129.412615850975
129.4724013201891
130.53847655960575
132.67301695098783
135.98509100361048
140.62653282311996
146.78570327402522
154.67936541677497
164.5425164957021
176.61672041209064
191.1373202685302
208.3202520136775
228.34944247563527
251.3654236929737
277.45645528396005
306.65262579947523
324.55154025050007
292.6400961311077
264.1425311456572
238.98268540403717
217.03166590335837
198.1150578181565
182.02237494524275
168.51764919066784
157.35035597318108
148.26700906594368
141.02192526784052
135.3875016963576
131.16309305021542
128.182650482686
126.32080655671916
125.49730454786736
125.67987807415963
126.88539249197686
129.1792543709035
132.6730078253265
137.51999129456345
143.90899234107326
152.0560174484526
162.1942655906557
174.56258046896326
189.39304759747768
206.898306056326
227.25942847396388
250.61525422355385
277.05394590134273
306.6076604615846
318.73307119903876
287.3323981035295
259.2690101303593
234.4739350584718
212.82685949279673
194.1623974359841
178.27909887182128
164.94915422753022
153.92963420658296
144.97355741254339
137.84100573442697
132.30942288061985
128.1826494864381
125.29876296419559
123.53617793038964
122.81821407214773
123.11588467958738
124.44898960287671
126.88539092774283
130.53847944146366
135.56267087818333
142.14708834038893
150.5072717895644
160.87528844270503
173.48848101417144
188.57737136603006
206.35349109283354
226.99764394468747
250.649750130684
277.40078014088425
307.2874558604791
314.29642919240587
283.3390934365234
255.6513465430439
231.17291133959284
209.79217940831668
191.35242528888838
175.66006542714877
162.49417462146647
151.61769270584418
142.78855343210523
135.7710341440594
130.34610257572797
126.32080508999033
123.53618020995388
121.87346348060085
121.25869148104985
121.66545060628597
123.11588336772508
125.67987530884382
129.4723987265525
134.648962557301
141.3992504212272
149.9389792765969
160.50012086665959
173.31994970666423
188.62930738341066
206.64073723136192
227.53722556084037
251.46224959117342
278.51202239708704
308.72995065375574
311.0216638188118
280.45316814162027
253.09754307747409
228.90329452127222
207.7671042504257
189.5398317569252
174.03403119065243
161.0340552754473
150.30683328356164
141.61354244400368
134.7210720210513
129.4126101198398
125.49730588394551
122.818211609194
121.2586916185778
120.74693149475382
121.25869243597954
122.81821271268521
125.4973084266992
129.4126129007954
134.72106910100203
141.61354778023835
150.30682852800817
161.0340617085047
174.03403853481757
189.53982547107577
207.76711872780217
228.9032837980136
253.0975612480654
280.4531355557702
311.02166648846963
308.729979676978
278.5120014546081
251.46227536823554
227.53725006927684
206.64073366755292
188.62932453782045
173.31995088137205
160.5001314562869
149.93897949990262
141.39925870271603
134.64896994454963
129.47239925730398
125.67988311515924
123.11588447515167
121.66545151253656
121.25869307455261
121.87346483704711
123.5361769297079
126.32080691833266
130.34609887982063
135.77102957189987
142.788555264472
151.61768572375473
162.49417540039738
175.66005217579723
191.35242990980132
209.79215885509916
231.17288909136334
255.65136488109252
283.33906195306065
314.2964314782425
307.2874886279825
277.40076011874584
250.64976153343866
226.99762688596212
206.35349761513402
188.57736230269404
173.48847311966682
160.875293761394
150.5072652183009
142.14709180467446
135.5626672815316
130.53847615337546
126.88538922915889
124.44898822363199
123.1158859705568
122.81821436834971
123.53617846932119
125.2987647966728
128.18265149404965
132.30942045914503
137.84100991927266
144.9735532070375
153.92963930696953
164.94915998613124
178.2790928266686
194.1624092238489
212.826848621158
234.47394913405392
259.2689759506832
287.3323940907448
318.7331022176736
306.60762485566397
277.0539587876655
250.61526626898112
227.25941077546992
206.89831344402214
189.39303852634836
174.56258392036835
162.1942582817453
152.0560210301632
143.90899597385794
137.51998747234757
132.67301426284502
129.17925262094363
126.8853911218416
125.6798779128086
125.49730461582612
126.32080446020422
128.18265210022594
131.16309099527854
135.38749955542843
141.0219289079129
148.26700630817453
157.35036060314997
168.5176428864193
182.02238514744693
198.11504698642395
217.03165441578983
238.9827107141935
264.14251124961015
292.64010562867503
324.5515834657394
306.65260638860025
277.45646712256126
251.36540369292848
228.3494489692963
208.32024112558446
191.13731088156572
176.61672632519145
164.54250871673827
154.67936948875848
146.78569889284068
140.626528820569
135.98508872786672
132.67301501280647
130.53847911162674
129.47240116882935
129.4126158909269
130.34610092719095
132.30942212701646
135.38750378336277
139.71075491648915
145.45065154328245
152.8137678461098
162.0342953074088
173.3652139368071
187.06813428810577
203.4023068992721
222.61304668893624
244.9200946964345
270.5065376913691
299.5086104262794
332.0071365246391
307.43319021285424
278.643187854151
252.9577152025463
230.34558819962663
210.7151448710078
193.92118626460854
179.77433281726832
168.05328078031079
158.51793041924665
150.92312329314927
145.0317658803189
140.62652253821702
137.5199920063758
135.56266994594432
134.6489615592685
134.72106925857582
135.77103446572028
137.84101038955916
141.02192931285862
145.4506469169788
151.30554519961765
158.80065988861492
168.17828871387
179.70013872323585
193.63715542877236
210.25824046858992
229.81835377721126
252.54608733985606
278.6318730356498
308.2166999489348
341.3823945181994
309.0083796619771
280.6979036722983
255.49869331785328
233.37438392238266
214.22665021927597
197.90226960115533
184.2039033158701
172.90300993429753
163.75363680952802
156.50670373773272
150.92311598007223
146.785695675842
143.9089886055316
142.14708295711733
141.39925262123563
141.61354369906846
142.7885557511294
144.973547582883
148.26700502854612
152.81376213888018
158.80066088426577
166.45070164632418
176.01569530883236
187.76727751089697
201.98653904509806
218.95234893528226
238.9287322153753
262.1518407269358
288.8168891893106
319.0659260541043
352.97687960632067
311.48359938669034
283.7511461975683
259.1409244097874
237.60743615721725
219.04165691719305
203.2792550142833
190.11262601747094
179.30445443120215
170.60242682678555
163.7536697879758
158.5179359038933
154.67937903553613
152.0560377901503
150.50728404888358
149.9390000465049
150.3068401934361
151.61770421263884
153.92964675173067
157.35037191343062
162.03431099802455
168.17829737634216
176.01571135637647
185.8089991598194
197.84051787636514
212.40171437200104
229.78093160592644
250.2498424699419
274.0495510554318
301.3763728846853
332.3684607574141
367.09387773251024
315.00752373707996
287.9758732239958
264.07817103880194
243.25535971743517
225.3835688044654
210.28437801192652
197.73794602579795
187.49746356037596
179.30444099297685
172.90301839617155
168.0532937959392
164.54252583519835
162.19428299453145
160.8752959470117
160.50013785395154
161.03406745029707
162.4941902431429
164.94917803439546
168.51765210972496
173.36523060004436
179.700140145767
187.76728624974933
197.8405105731367
210.21307138239075
225.1862514380217
243.05628219369967
264.1000093120389
288.55967472809203
316.6277516274642
348.4324957943752
384.02519888654524
319.7681461075494
293.5825560810326
270.53930195425835
250.5605049674635
233.50356864360452
219.17347823966074
207.33697153584563
197.73793139224725
190.1126199021367
184.20392040857953
179.77435430002055
176.61671669969633
174.56259191797804
173.48848054367213
173.3199610768959
174.03405283341522
175.66005933714047
178.27910383316606
182.02238503393832
187.06814292836657
193.63715465443735
201.98654804251672
212.40172691648212
225.18624034114174
240.64969741900424
259.09362588875547
280.7961756218418
305.9957668886003
334.8749293046581
367.54517792058397
404.0337734686274
325.98614402517194
300.81174204155826
278.7794391964458
259.7869730369802
243.66946054287413
230.21375119228205
219.17346288211644
210.2843712291051
203.27924188876057
197.90226322048716
193.92118767413027
191.1373062443999
189.39305131787484
188.5773768903915
188.6293084198115
189.53983040333424
191.35242907000028
194.16241347807386
198.1150386544976
203.40230457267802
210.25824593285174
218.95234389816207
229.78092222232164
243.0562840129723
259.09362002284564
278.19599483681463
300.63776324154423
326.64738782346933
356.3905060092254
389.9544873831702
427.3355018705101
333.90756607787154
309.9255871769854
289.06996838190463
271.208512871334
256.1518755395981
243.66946870837307
233.50356148628296
225.3835347478897
219.04161961015612
214.22665004058044
210.7151432343187
208.32024453818013
206.89829675080716
206.35348453804954
206.64072546792113
207.76711021545265
209.79214342626472
212.82683920639477
217.03165218239258
222.61303607833668
229.8183412157198
238.9287325952048
250.24982798463049
264.1000018886666
280.79616066201476
300.63775387417564
323.88916799920213
350.7617965908649
381.3968724941517
415.85028743319924
454.0808874547618
343.7951655061218
321.1980437293905
301.6866807813133
285.09397905066805
271.20858071270555
259.7869865534235
250.5605302701691
243.25537351581033
237.6074593626022
233.37445157823154
230.34561094811824
228.34947799718432
227.2594582342737
226.99767811223597
227.53725318414888
228.90331688095674
231.17293978920296
234.47398040599094
238.98273145701307
244.92013192664984
252.5461195847814
262.1518707088355
274.0495800502303
288.5596919922846
305.99578383514785
326.6474072877278
350.76183901447445
378.52569820305206
410.04796681958317
445.3461539260469
484.3374578636933
355.92066093840447
334.9059950259398
316.89453453791754
301.6866555998059
289.07001377942714
278.7794640855377
270.53933652289373
264.0782004704401
259.140916293915
255.4987255175113
252.95775347732518
251.3654468910882
250.61527078924044
250.64977214968553
251.46229147095167
253.09758004700998
255.65138894589379
259.2690077866246
264.14253682054664
270.5065682196871
278.6318991629019
288.81690134205684
301.376393665997
316.62775949153604
334.87495245564213
356.3905234277002
381.3968926627829
410.0479606664352
442.4124815814374
478.46258845862957
518.0722790128349
370.5643034631858
351.3275094280173
334.90597220122896
321.198028865706
309.9256172744317
300.81178267743417
293.5825407469199
287.9758691513322
283.7511534173997
280.6979530102346
278.6431774482951
277.4564603699714
277.05397664160563
277.40078513078777
278.5120342975849
280.45315507139935
283.33908748374114
287.33240766745496
292.6401122360865
299.5086225907497
308.21670676196453
319.0659291035251
332.3684774591214
348.4324977816405
367.5451871034254
389.9545001587803
415.85030230653274
445.34615055050347
478.4625794189459
515.1115746846357
555.1282923807993
388.1482685760981
370.5642748962147
355.92064448082255
343.7951650568972
333.9075617433905
325.98614744393194
319.7681452170607
315.0075367544482
311.4835487586145
309.0083766638359
307.43319252012145
306.65261191839414
306.6076559400886
307.2874568446361
308.72995776545
311.02166442511424
314.29643565874994
318.7330989377745
324.55157561991535
332.0071351536641
341.38239295119484
352.9768757905497
367.0938791083046
384.0251875536356
404.03376253345687
427.3354938262109
454.08089459594714
484.3374439269183
518.0722556889901
555.1282771113333
594.973500609043
