# vtk DataFile Version 2.0
Unstructured Grid Example
ASCII
DATASET UNSTRUCTURED_GRID

POINTS 961 float
0.150000006 -0.00839745998 0
0.146666661 -0.00839745998 0
0.143333331 -0.00839745998 0
0.140000001 -0.00839745998 0
0.13666667 -0.00839745998 0
0.13333334 -0.00839745998 0
0.129999995 -0.00839745998 0
0.126666665 -0.00839745998 0
0.123333335 -0.00839745998 0
0.119999997 -0.00839745998 0
0.116666667 -0.00839745998 0
0.113333337 -0.00839745998 0
0.109999999 -0.00839745998 0
0.106666669 -0.00839745998 0
0.103333332 -0.00839745998 0
0.100000001 -0.00839745998 0
0.0966666639 -0.00839745998 0
0.0933333337 -0.00839745998 0
0.0900000036 -0.00839745998 0
0.086666666 -0.00839745998 0
0.0833333358 -0.00839745998 0
0.0799999982 -0.00839745998 0
0.0766666681 -0.00839745998 0
0.0733333305 -0.00839745998 0
0.0700000003 -0.00839745998 0
0.0666666701 -0.00839745998 0
0.0633333325 -0.00839745998 0
0.0599999987 -0.00839745998 0
0.0566666685 -0.00839745998 0
0.0533333346 -0.00839745998 0
0.0500000007 -0.00839745998 0
0.148333326 -0.0112842107 0
0.144999996 -0.0112842107 0
0.141666666 -0.0112842107 0
0.138333336 -0.0112842107 0
0.135000005 -0.0112842107 0
0.13166666 -0.0112842107 0
0.12833333 -0.0112842107 0
0.125 -0.0112842107 0
0.12166667 -0.0112842107 0
0.118333332 -0.0112842107 0
0.115000002 -0.0112842107 0
0.111666664 -0.0112842107 0
0.108333334 -0.0112842107 0
0.104999997 -0.0112842107 0
0.101666667 -0.0112842107 0
0.0983333364 -0.0112842107 0
0.0949999988 -0.0112842107 0
0.0916666687 -0.0112842107 0
0.088333331 -0.0112842107 0
0.0850000009 -0.0112842107 0
0.0816666633 -0.0112842107 0
0.0783333331 -0.0112842107 0
0.075000003 -0.0112842107 0
0.0716666654 -0.0112842107 0
0.0683333352 -0.0112842107 0
0.0649999976 -0.0112842107 0
0.0616666675 -0.0112842107 0
0.0583333336 -0.0112842107 0
0.0549999997 -0.0112842107 0
0.0516666658 -0.0112842107 0
0.0483333319 -0.0112842107 0
0.146666661 -0.0141709624 0
0.143333331 -0.0141709624 0
0.140000001 -0.0141709624 0
0.13666667 -0.0141709624 0
0.13333334 -0.0141709624 0
0.129999995 -0.0141709624 0
0.126666665 -0.0141709624 0
0.123333335 -0.0141709624 0
0.119999997 -0.0141709624 0
0.116666667 -0.0141709624 0
0.113333337 -0.0141709624 0
0.109999999 -0.0141709624 0
0.106666669 -0.0141709624 0
0.103333332 -0.0141709624 0
0.100000001 -0.0141709624 0
0.0966666639 -0.0141709624 0
0.0933333337 -0.0141709624 0
0.0900000036 -0.0141709624 0
0.086666666 -0.0141709624 0
0.0833333358 -0.0141709624 0
0.0799999982 -0.0141709624 0
0.0766666681 -0.0141709624 0
0.0733333305 -0.0141709624 0
0.0700000003 -0.0141709624 0
0.0666666701 -0.0141709624 0
0.0633333325 -0.0141709624 0
0.0599999987 -0.0141709624 0
0.0566666685 -0.0141709624 0
0.0533333346 -0.0141709624 0
0.0500000007 -0.0141709624 0
0.0466666669 -0.0141709624 0
0.144999996 -0.0170577131 0
0.141666666 -0.0170577131 0
0.138333336 -0.0170577131 0
0.135000005 -0.0170577131 0
0.13166666 -0.0170577131 0
0.12833333 -0.0170577131 0
0.125 -0.0170577131 0
0.12166667 -0.0170577131 0
0.118333332 -0.0170577131 0
0.115000002 -0.0170577131 0
0.111666664 -0.0170577131 0
0.108333334 -0.0170577131 0
0.104999997 -0.0170577131 0
0.101666667 -0.0170577131 0
0.0983333364 -0.0170577131 0
0.0949999988 -0.0170577131 0
0.0916666687 -0.0170577131 0
0.088333331 -0.0170577131 0
0.0850000009 -0.0170577131 0
0.0816666633 -0.0170577131 0
0.0783333331 -0.0170577131 0
0.075000003 -0.0170577131 0
0.0716666654 -0.0170577131 0
0.0683333352 -0.0170577131 0
0.0649999976 -0.0170577131 0
0.0616666675 -0.0170577131 0
0.0583333336 -0.0170577131 0
0.0549999997 -0.0170577131 0
0.0516666658 -0.0170577131 0
0.0483333319 -0.0170577131 0
0.0450000018 -0.0170577131 0
0.143333331 -0.0199444648 0
0.140000001 -0.0199444648 0
0.13666667 -0.0199444648 0
0.13333334 -0.0199444648 0
0.129999995 -0.0199444648 0
0.126666665 -0.0199444648 0
0.123333335 -0.0199444648 0
0.119999997 -0.0199444648 0
0.116666667 -0.0199444648 0
0.113333337 -0.0199444648 0
0.109999999 -0.0199444648 0
0.106666669 -0.0199444648 0
0.103333332 -0.0199444648 0
0.100000001 -0.0199444648 0
0.0966666639 -0.0199444648 0
0.0933333337 -0.0199444648 0
0.0900000036 -0.0199444648 0
0.086666666 -0.0199444648 0
0.0833333358 -0.0199444648 0
0.0799999982 -0.0199444648 0
0.0766666681 -0.0199444648 0
0.0733333305 -0.0199444648 0
0.0700000003 -0.0199444648 0
0.0666666701 -0.0199444648 0
0.0633333325 -0.0199444648 0
0.0599999987 -0.0199444648 0
0.0566666685 -0.0199444648 0
0.0533333346 -0.0199444648 0
0.0500000007 -0.0199444648 0
0.0466666669 -0.0199444648 0
0.043333333 -0.0199444648 0
0.141666666 -0.0228312165 0
0.138333336 -0.0228312165 0
0.135000005 -0.0228312165 0
0.13166666 -0.0228312165 0
0.12833333 -0.0228312165 0
0.125 -0.0228312165 0
0.12166667 -0.0228312165 0
0.118333332 -0.0228312165 0
0.115000002 -0.0228312165 0
0.111666664 -0.0228312165 0
0.108333334 -0.0228312165 0
0.104999997 -0.0228312165 0
0.101666667 -0.0228312165 0
0.0983333364 -0.0228312165 0
0.0949999988 -0.0228312165 0
0.0916666687 -0.0228312165 0
0.088333331 -0.0228312165 0
0.0850000009 -0.0228312165 0
0.0816666633 -0.0228312165 0
0.0783333331 -0.0228312165 0
0.075000003 -0.0228312165 0
0.0716666654 -0.0228312165 0
0.0683333352 -0.0228312165 0
0.0649999976 -0.0228312165 0
0.0616666675 -0.0228312165 0
0.0583333336 -0.0228312165 0
0.0549999997 -0.0228312165 0
0.0516666658 -0.0228312165 0
0.0483333319 -0.0228312165 0
0.0450000018 -0.0228312165 0
0.0416666679 -0.0228312165 0
0.140000001 -0.0257179681 0
0.13666667 -0.0257179681 0
0.13333334 -0.0257179681 0
0.129999995 -0.0257179681 0
0.126666665 -0.0257179681 0
0.123333335 -0.0257179681 0
0.119999997 -0.0257179681 0
0.116666667 -0.0257179681 0
0.113333337 -0.0257179681 0
0.109999999 -0.0257179681 0
0.106666669 -0.0257179681 0
0.103333332 -0.0257179681 0
0.100000001 -0.0257179681 0
0.0966666639 -0.0257179681 0
0.0933333337 -0.0257179681 0
0.0900000036 -0.0257179681 0
0.086666666 -0.0257179681 0
0.0833333358 -0.0257179681 0
0.0799999982 -0.0257179681 0
0.0766666681 -0.0257179681 0
0.0733333305 -0.0257179681 0
0.0700000003 -0.0257179681 0
0.0666666701 -0.0257179681 0
0.0633333325 -0.0257179681 0
0.0599999987 -0.0257179681 0
0.0566666685 -0.0257179681 0
0.0533333346 -0.0257179681 0
0.0500000007 -0.0257179681 0
0.0466666669 -0.0257179681 0
0.043333333 -0.0257179681 0
0.0399999991 -0.0257179681 0
0.138333336 -0.0286047198 0
0.135000005 -0.0286047198 0
0.13166666 -0.0286047198 0
0.12833333 -0.0286047198 0
0.125 -0.0286047198 0
0.12166667 -0.0286047198 0
0.118333332 -0.0286047198 0
0.115000002 -0.0286047198 0
0.111666664 -0.0286047198 0
0.108333334 -0.0286047198 0
0.104999997 -0.0286047198 0
0.101666667 -0.0286047198 0
0.0983333364 -0.0286047198 0
0.0949999988 -0.0286047198 0
0.0916666687 -0.0286047198 0
0.088333331 -0.0286047198 0
0.0850000009 -0.0286047198 0
0.0816666633 -0.0286047198 0
0.0783333331 -0.0286047198 0
0.075000003 -0.0286047198 0
0.0716666654 -0.0286047198 0
0.0683333352 -0.0286047198 0
0.0649999976 -0.0286047198 0
0.0616666675 -0.0286047198 0
0.0583333336 -0.0286047198 0
0.0549999997 -0.0286047198 0
0.0516666658 -0.0286047198 0
0.0483333319 -0.0286047198 0
0.0450000018 -0.0286047198 0
0.0416666679 -0.0286047198 0
0.038333334 -0.0286047198 0
0.13666667 -0.0314914696 0
0.13333334 -0.0314914696 0
0.129999995 -0.0314914696 0
0.126666665 -0.0314914696 0
0.123333335 -0.0314914696 0
0.119999997 -0.0314914696 0
0.116666667 -0.0314914696 0
0.113333337 -0.0314914696 0
0.109999999 -0.0314914696 0
0.106666669 -0.0314914696 0
0.103333332 -0.0314914696 0
0.100000001 -0.0314914696 0
0.0966666639 -0.0314914696 0
0.0933333337 -0.0314914696 0
0.0900000036 -0.0314914696 0
0.086666666 -0.0314914696 0
0.0833333358 -0.0314914696 0
0.0799999982 -0.0314914696 0
0.0766666681 -0.0314914696 0
0.0733333305 -0.0314914696 0
0.0700000003 -0.0314914696 0
0.0666666701 -0.0314914696 0
0.0633333325 -0.0314914696 0
0.0599999987 -0.0314914696 0
0.0566666685 -0.0314914696 0
0.0533333346 -0.0314914696 0
0.0500000007 -0.0314914696 0
0.0466666669 -0.0314914696 0
0.043333333 -0.0314914696 0
0.0399999991 -0.0314914696 0
0.0366666652 -0.0314914696 0
0.135000005 -0.0343782231 0
0.13166666 -0.0343782231 0
0.12833333 -0.0343782231 0
0.125 -0.0343782231 0
0.12166667 -0.0343782231 0
0.118333332 -0.0343782231 0
0.115000002 -0.0343782231 0
0.111666664 -0.0343782231 0
0.108333334 -0.0343782231 0
0.104999997 -0.0343782231 0
0.101666667 -0.0343782231 0
0.0983333364 -0.0343782231 0
0.0949999988 -0.0343782231 0
0.0916666687 -0.0343782231 0
0.088333331 -0.0343782231 0
0.0850000009 -0.0343782231 0
0.0816666633 -0.0343782231 0
0.0783333331 -0.0343782231 0
0.075000003 -0.0343782231 0
0.0716666654 -0.0343782231 0
0.0683333352 -0.0343782231 0
0.0649999976 -0.0343782231 0
0.0616666675 -0.0343782231 0
0.0583333336 -0.0343782231 0
0.0549999997 -0.0343782231 0
0.0516666658 -0.0343782231 0
0.0483333319 -0.0343782231 0
0.0450000018 -0.0343782231 0
0.0416666679 -0.0343782231 0
0.038333334 -0.0343782231 0
0.0350000001 -0.0343782231 0
0.13333334 -0.0372649729 0
0.129999995 -0.0372649729 0
0.126666665 -0.0372649729 0
0.123333335 -0.0372649729 0
0.119999997 -0.0372649729 0
0.116666667 -0.0372649729 0
0.113333337 -0.0372649729 0
0.109999999 -0.0372649729 0
0.106666669 -0.0372649729 0
0.103333332 -0.0372649729 0
0.100000001 -0.0372649729 0
0.0966666639 -0.0372649729 0
0.0933333337 -0.0372649729 0
0.0900000036 -0.0372649729 0
0.086666666 -0.0372649729 0
0.0833333358 -0.0372649729 0
0.0799999982 -0.0372649729 0
0.0766666681 -0.0372649729 0
0.0733333305 -0.0372649729 0
0.0700000003 -0.0372649729 0
0.0666666701 -0.0372649729 0
0.0633333325 -0.0372649729 0
0.0599999987 -0.0372649729 0
0.0566666685 -0.0372649729 0
0.0533333346 -0.0372649729 0
0.0500000007 -0.0372649729 0
0.0466666669 -0.0372649729 0
0.043333333 -0.0372649729 0
0.0399999991 -0.0372649729 0
0.0366666652 -0.0372649729 0
0.0333333351 -0.0372649729 0
0.13166666 -0.0401517227 0
0.12833333 -0.0401517227 0
0.125 -0.0401517227 0
0.12166667 -0.0401517227 0
0.118333332 -0.0401517227 0
0.115000002 -0.0401517227 0
0.111666664 -0.0401517227 0
[...]
POINT_DATA 961
SCALARS Temp float 1
LOOKUP_TABLE default
553.5984446763297
511.4697701182271
472.8850066613109
438.46604348086754
408.3321195279801
382.427816778372
360.5619291649164
342.4395100394127
327.6926550775169
315.9115813396101
306.67271187842624
299.5623592620969
294.1954476131357
290.2287419642946
287.3689694835979
285.3770358395053
284.06921835023877
283.3167598479598
283.0448254391208
283.2316687616056
283.9083766081824
285.1591594687854
287.1217051458346
289.9868477892218
293.99644094819223
299.43863575289396
306.6397818545632
315.9531398811329
327.74654839225724
342.39644380330884
360.43577712877413
511.4697819231165
469.41301043089936
431.6103302938722
398.1991091811701
369.19929049177716
344.4799244864129
323.78866283809333
306.78196857086374
293.05724141101433
282.1829721405479
273.7256830078213
267.27171930731674
262.4438820886151
258.91236675835717
256.40121060793984
254.69098073207095
253.61916876489218
253.07939390290773
253.02038823879428
253.44543263605308
254.41239903593456
256.0341454241401
258.4786416660402
261.96783007255414
266.7741707000898
273.21407548818235
281.63756215082833
292.414911669091
305.9217709873162
322.53042009716296
342.39646328772244
472.8849600839341
431.61030607858754
394.790100341269
362.50152421224783
334.68050333290915
311.1318642858896
291.55384030536743
275.567512782699
262.7481611899376
252.6541518175977
244.85164812292678
238.93445729749186
234.53832746614356
231.3499911744888
229.11214157226271
227.62516351467195
226.74709626035929
226.3927856013562
226.53314251914225
227.1949089873952
228.46093517829823
230.47050710462224
233.41895573964163
237.55540736532697
243.17775460228117
250.62385585208727
260.25856365757113
272.45662328488305
287.57995418476077
305.92176231562513
327.7465606117638
438.46597929377793
398.19906965332524
362.5015206031825
331.3884179064283
304.7351603242889
282.2977032682904
263.7383924504636
248.6561224971659
236.61574694356509
227.1751090154337
219.907469708909
214.4191949377687
210.36190268785728
207.44015960700509
205.41527217144653
204.10658015505024
203.39129663226112
203.20387625885468
203.53563443743494
204.43482470849062
206.006998334555
208.4150695751996
211.87811472326976
216.6678055111275
223.10152420173551
231.53110500081738
242.32702074380927
255.8569893883518
272.4566410456373
292.4149248183051
315.9531315103769
408.33205061778114
369.199246925938
334.68047521975717
304.73525930320034
279.19217481347545
257.7723952883738
240.11613731908065
225.81181240856108
214.42371121192107
205.51647677525858
198.67557790000052
193.52282372022626
189.72693191144583
187.0101290946354
185.15133663888648
183.987320545285
183.41266612663853
183.3795224623077
183.89757070655665
185.03431748089895
186.91537020521318
189.72400541022648
193.69894502483072
199.12937209166728
206.3460410118417
215.7077682878323
227.58306366198164
242.32701283884884
260.25855784859345
281.6375617609254
306.6397865554774
382.427739288583
344.47997741388474
311.1319331899138
282.29766423936746
257.7723787349601
237.25527685488927
220.3764346368185
206.72361477940095
195.86789267165958
187.3858444220713
180.87807746133194
175.9829001355248
172.38596080246333
169.82600162934276
168.09792170268912
167.0540001000666
166.604191991173
166.71626558436583
167.4160614626373
168.78785926482126
170.97441207094454
174.1758189810498
178.64620704042147
184.68725886167394
192.63747571320664
202.85699376620428
215.70776321138914
231.5311067088366
250.6238620092605
273.21405242401516
299.4386342169396
360.56194689151397
323.7886962349775
291.5539007676847
263.73834415798
240.11611364690722
220.37642618676554
204.1487956598061
191.02786221538744
180.5964238553163
172.4459258974216
166.1931458848192
161.49268328016936
158.0458868016316
155.6063117545023
153.98286131077634
153.0412530203112
152.70473792074407
152.95456911961116
153.83045762331875
155.43087516923737
157.9126902317997
161.48924129913522
166.42596582483804
173.0324992263078
181.65055030245534
192.63746987924884
206.34602938110766
223.10150782355663
243.17775668720824
266.7741701542096
293.99644854704735
342.43952822031093
306.78200005539094
275.5674398844458
248.65607338992285
225.81181849639583
206.72363648332347
191.02785538652046
178.33089795260346
168.2302193320993
160.33322129177947
154.27246210999826
149.7176562652305
146.3840430684439
144.0379794291557
142.50027764189363
141.6480403382888
141.41576878441577
141.79608902195235
142.8402946346275
144.65847117442166
147.41862552401972
151.34398106254767
156.70759397928492
163.8232619735976
173.03249484749523
184.68725189309365
199.12937685782472
216.66780781836704
237.55539144457492
261.9678098947329
289.98683592172506
327.6926636732894
293.0572772273131
262.748120814863
236.6157312123022
214.42371792627105
195.8678727281142
180.59641570273413
168.2302413016115
158.38254625789833
150.67628247041677
144.75859110957705
140.31243532159812
137.06491831323396
134.79311006131763
133.32767629390162
132.55514946783342
132.41933313523086
132.92221097887315
134.12446775874164
136.14534486000645
139.16122502009227
143.40224404319923
149.14599068406858
156.7075984220969
166.42597010607878
178.6462084965049
193.69894396125696
211.87810989346772
233.41895837954968
258.4786512753014
287.12172463090855
315.9116299499435
282.1829077314573
252.65412360606948
227.17510017460586
205.51648759762662
187.3858437945216
172.44593709934358
160.3332131030188
150.67627620876985
143.1122272578768
137.30101794756328
132.93673797731276
129.7562676249297
127.54536455052701
126.14266941556055
125.44234540608784
125.39570114138078
126.01221251706754
127.35993248219063
129.5650291415641
132.80987579181098
137.32903692658638
143.40224041914016
151.3439811522665
161.4892399487003
174.17581629413016
189.724001829012
208.41504941093103
230.47049165233514
256.03412819894913
285.1591515105219
306.6727852900322
273.7256307336735
244.85162759972638
219.9074817572608
198.67556166681524
180.87807810068543
166.19315820881636
154.27246502713373
144.7585978404195
137.30101683952333
131.57031140635235
127.26961599157615
124.14359770494832
121.98483884051505
120.63827576557844
120.00409085249574
120.03950668944795
120.75982660475546
122.23868898445454
124.60727219700357
128.05198101307334
132.80988309425356
139.16122629099152
147.41862220613888
157.9126849458737
170.97441199569582
186.9153678402871
206.00699599004494
228.4609407462464
254.41240651474263
283.90836460972344
299.5622991753173
267.2716898533843
238.93445675519445
214.4192106205574
193.52280822982468
175.98291129385905
161.49267478974775
149.7176590990538
140.312424757213
132.93673699285156
127.26962402891935
123.02127831607235
119.94232640710112
117.83057599061188
116.5357983639233
115.96279612802014
116.0733365271678
116.88712557012175
118.48189211553903
120.99230061081975
124.60727855392643
129.56503324413669
136.14534282434985
144.65848058570876
155.4308851615481
168.78787131560432
185.0343108539563
204.43481706147992
227.1949117620151
253.44543573447586
283.23168251207613
294.19541422050634
262.4438705821349
234.53834166761018
210.36188420068464
189.72693438611068
172.38598007547773
158.0458833725596
146.38405029640518
137.0649147817405
129.75627258171667
124.14359340321272
119.94232345366437
116.90743249407255
114.8405917718062
113.59516419569697
113.07943014568991
113.25856406974617
114.15552775694314
115.85096438907269
118.48188518099242
122.23868699763177
127.35993840833171
134.12446061658127
142.84029230891804
153.8304542340578
167.4160572382283
183.8975688324439
203.53563279526793
226.5331501207929
253.02036550358804
283.0448297204349
290.2287117124791
258.91236473332344
231.3500164202552
207.44014308180223
187.01013475059395
169.82598552127948
155.60631477390476
144.0379717589473
134.7931073554506
127.54537122989797
121.98483410151381
117.83057722179208
114.84059102369598
112.81927933670681
111.62258097365718
111.16135548903382
111.4033037187456
112.3737832085012
114.15552657138448
116.88712771817086
120.75982675101045
126.01221633766146
132.92221042341458
141.7960950680195
152.95457828532588
166.71626034346323
183.37951664723292
203.20387015974327
226.39278758315527
253.07939750052972
283.31675855103515
287.36896426644336
256.4012270555092
229.112122682154
205.41527057284327
185.15135946205413
168.09791915228854
153.9828735010953
142.50027563190164
133.32767553339335
126.14266806623237
120.63827623547319
116.53580047046006
113.59516318286013
111.6225825192329
110.47583664994116
110.06769526763827
110.36778808321733
111.40330277132053
113.25856201962628
116.07333446231563
120.03950698044247
125.39569890763829
132.41932606306352
141.41576702361468
152.70473543413544
166.6041906123606
183.41266487910633
203.39129638485898
226.7470780353957
253.61916554993658
284.0692107138162
285.3770344193244
254.69100156136614
227.62515060283377
204.10658560685127
183.98730251212027
167.0540004867688
153.04124080450308
141.64804221463373
132.5551538415025
125.44234478068987
120.00409222936919
115.96279163343802
113.07943099836889
111.16135370926834
110.0676953630106
109.71272997408363
110.06769594165367
111.16135450013905
113.0794329090228
115.96279375360434
120.00409003907848
125.44234919953696
132.5551499444861
141.64804791497207
153.04124744496735
167.05399496696617
183.98731621783762
204.1065754976576
227.62516880293433
254.69096905133364
285.37703671792184
284.0692408267018
253.61914527402004
226.74710389609092
203.39132052537386
183.41266169107453
166.60420664798562
152.70473657283006
141.41577617718573
132.41932630869374
125.39570555547915
120.03951274274891
116.07333485669368
113.25856772768292
111.4033035616422
110.36778872231712
110.06769638296586
110.47583758937206
111.62258020555721
113.5951644245944
116.53579757711226
120.6382725354442
126.14266919498529
133.3276694091315
142.50027580402525
153.98286107088563
168.09792269765754
185.1513392434888
205.41524821759424
229.11213911052343
256.4011940543411
287.36896398644797
283.31679110617165
253.07937692302954
226.39279862469976
203.2038534695351
183.3795225359784
166.7162518043295
152.95457098223267
141.7960995967834
132.92220472261187
126.01221905111235
120.75982388382265
116.88712513698437
114.15552530665586
112.37378219362172
111.40330467140765
111.1613556877538
111.62258133857794
112.81928065093612
114.8405924817664
117.83057548807257
121.98483740359029
127.54536793592376
134.79311168987877
144.0379767645686
155.60630968260676
169.82599634234634
187.01012486265117
207.4401569288381
231.34998317804616
258.9123606695339
290.22874185521425
283.0447932837136
253.02037826105914
226.53316188122128
203.53561517719962
183.89757569620485
167.4160485851646
153.83045709475672
142.84028582485723
134.1244634803944
127.35994130519526
122.23868392419976
118.48189004850592
115.85096306637764
114.15552673512508
113.25856392786211
113.07943016169547
113.59516285102187
114.84059291666347
116.90743106854922
119.94232196725035
124.14359620501784
129.75627053680893
137.06491870475878
146.38404505060987
158.04589262856354
172.38597050956236
189.72692414337124
210.36190856421965
234.5383229729828
262.4438805088307
294.1954578628657
283.2316624207247
253.445447391535
227.19489154988216
204.4348230238657
185.03430020908468
168.7878622918372
155.43089038630367
144.65847355061885
136.14534615854063
129.56502960815388
124.60727528193021
120.99229885657427
118.48189063453115
116.88712747813861
116.07333641801732
115.96279613141805
116.53579917905206
117.83057689652443
119.94232507769945
123.02128070934772
127.26962131033409
132.93674024411533
140.31242844688845
149.717654549847
161.49268325071745
175.98290209045942
193.5228191967098
214.41917984177422
238.9344515519611
267.2717156296289
299.5623540597798
283.9083753337081
254.41241743749606
228.4609193753236
206.00700305337597
186.9153573567065
170.97441522629967
157.91267708621163
147.41862569965693
139.16122988109063
132.80987929176155
128.0519873289966
124.60727049642999
122.2386876040784
120.75982613016257
120.039506307336
120.0040904103705
120.63827650339609
121.98483777651992
124.14359661085122
127.26961799897059
131.57030966949694
137.3010197404923
144.7585933152139
154.27247231381224
166.19314966260515
180.87806897339613
198.67558247953951
219.90746550958434
244.85163882796533
273.72567702948305
306.6727042640558
285.1591599531247
256.0341030363339
230.47049743645468
208.415036823952
189.72399128125446
174.1758223854397
161.48923173150877
151.34398525567212
143.40223610695006
137.32903304081822
132.80987359462176
129.56502721702316
127.35993534552128
126.01221219341957
125.39570086764883
125.44234583443392
126.14266989113548
127.54536358518918
129.7562693233918
132.93673579504062
137.3010203923772
143.1122299447325
150.67627228604604
160.33321979390928
172.445929026902
187.38585313690368
205.5164610859494
227.17509786104156
252.65415358911287
282.18297954612444
315.91159328245084
287.12175450122453
258.47864757865403
233.418985530508
211.87811601843225
193.6989644555265
178.64621492401056
166.4259887462114
156.70761629441378
149.14599896979894
143.40226396714823
139.16123464779903
136.14535440338855
134.12447789328752
132.9222208429966
132.41934379207112
132.55515995952308
133.32768525165918
134.79311864953038
137.06492857907884
140.31244212598693
144.75860075073527
150.67628527129946
158.3825575582755
168.23023817614322
180.59641084943092
195.8678922966564
214.42370439814667
236.61574246661598
262.7481667071341
293.05720581725956
327.6926337841424
289.9868323449595
261.9678393057355
237.55539860717332
216.66781578697595
199.12940234568015
184.687260122554
173.0325162414002
163.82327280392852
156.7076046410493
151.34399300783954
147.41863730339594
144.6584886906127
142.84030766173072
141.79610178207966
141.41578191243164
141.6480532140896
142.50028940621132
144.03799265619912
146.38405292239008
149.71766911066746
154.27247429623796
160.33322732057175
168.23023293969533
178.33089797664337
191.02786889294651
206.7236174515023
225.81181966318945
248.65610291435382
275.5675059525151
306.78196058199717
342.4395140455
293.99643805289855
266.7741910677009
243.17775517042352
223.10152309018582
206.3460297156595
192.6374846748242
181.6505648352701
173.03250328033977
166.42598371081704
161.489247604443
157.91269665371834
155.43088236553973
153.83046464237808
152.9545780182048
152.70474601813487
153.04126022198537
153.98286844594787
155.6063201497614
158.04589276620598
161.49269169165282
166.19314914300952
172.4459363762251
180.59642264501312
191.02786001732488
204.14881475931745
220.3764167008007
240.11612639992654
263.73838770190054
291.55383383868957
323.78866451529103
360.5619500487048
299.4386430879554
273.21403842226204
250.62385028149953
231.5311152892257
215.70775404650172
202.85699991809483
192.63747083561822
184.68725439434238
178.64620434337488
174.17581645413264
170.97441662797578
168.78785880198228
167.41606090670177
166.71626555151397
166.60419193359996
167.0539997122742
168.09792252948253
169.8260002646933
172.38596219310634
175.98290137118573
180.8780743275466
187.3858481472193
195.86788559057675
206.72361981886039
220.37641171680664
237.25527191383773
257.77239876656205
282.297715687518
311.1318833146272
344.47994280981567
382.42773824414576
306.6397818047418
281.6375353732278
260.25855050170344
242.32699019629848
227.58305713553733
215.70776186329658
206.3460234908352
199.12937001555701
193.6989305264373
189.72399121845103
186.91535693692379
185.03430412996246
183.8975600541159
183.37951061192115
183.41265386569054
183.9873084954111
185.15132562088954
187.01011645982393
189.7269215365382
193.52280956950824
198.67557009146992
205.51645948136127
214.42369352166253
225.81181331228333
240.11611279608925
257.7723898253685
279.1921952761338
304.7351742019297
334.68041576505476
369.19920933869975
408.3320390766808
315.95314736275077
292.41494313278076
272.4566806347003
255.8570099077862
242.32705673668033
231.5311288512985
223.10154817132027
216.6678309698049
211.87814015880107
208.41510261607948
206.00702577703592
204.4348519039543
203.5356619799329
203.20390365466477
203.39132389473946
204.1066080455273
205.41529814511497
207.4401874794626
210.36192987796042
214.41921792753095
219.90749766359733
227.17512654591488
236.61577345109487
248.65612221080536
263.7384053527681
282.29773480989195
304.7352150261656
331.3883709885019
362.50147642560006
398.199040749666
438.46598438421773
327.7465729601662
305.92179569114217
287.57997082229474
272.4566555099104
260.25859530929336
250.62387558474921
243.17778999777553
237.55542974325112
233.41897827511212
230.47053038551795
228.4609581891714
227.194934916985
226.5331668504895
226.39280957328984
226.74712030524253
227.62518804361198
229.11216445959727
231.3500154993248
234.53834806710836
238.93448251685732
244.8516640547178
252.6541661173354
262.74819011288884
275.5675163762466
291.5538577532115
311.1319006782921
334.6804358006298
362.5014712028317
394.79005466269956
431.61027100298946
472.884955484141
342.3964666239136
322.5304424267578
305.9217728427812
292.41492851153833
281.6375667094056
273.2140801635749
266.7741768514581
261.96783631279146
258.4786558555389
256.03415395479936
254.41240726007254
253.44544125871366
253.02039682307296
253.0794026821922
253.61917806049183
254.69098857696733
256.40122022543665
258.91237586164766
262.4438877976319
267.27172955736756
273.72568410551605
282.1829812886956
293.05722627254397
306.7819648549597
323.7886747556793
344.4799555433555
369.1992238440614
398.199038560969
431.6102620122014
469.4129506486676
511.46969231298505
360.435792620813
342.3964377540696
327.7465566892017
315.95314736597925
306.6397771138976
299.4386464528423
293.9964386408058
289.98684634380066
287.12170432971425
285.1591577562038
283.90837811799923
283.2316685528242
283.0448252945062
283.31675972138316
284.0692186601974
285.3770349372324
287.3689695639987
290.2287392896137
294.1954490575155
299.56235244771005
306.6727037312467
315.9115868230114
327.692637834888
342.43950473894745
360.561939760298
382.4277304738492
408.33204551850747
438.46597065953466
472.8849314340478
511.46967626435793
553.5980782609507
