# vtk DataFile Version 2.0
Unstructured Grid Example
ASCII
DATASET UNSTRUCTURED_GRID

POINTS 961 float
0.150000006 -0.00839745998 0
0.146666661 -0.00839745998 0
0.143333331 -0.00839745998 0
0.140000001 -0.00839745998 0
0.13666667 -0.00839745998 0
0.13333334 -0.00839745998 0
0.129999995 -0.00839745998 0
0.126666665 -0.00839745998 0
0.123333335 -0.00839745998 0
0.119999997 -0.00839745998 0
0.116666667 -0.00839745998 0
0.113333337 -0.00839745998 0
0.109999999 -0.00839745998 0
0.106666669 -0.00839745998 0
0.103333332 -0.00839745998 0
0.100000001 -0.00839745998 0
0.0966666639 -0.00839745998 0
0.0933333337 -0.00839745998 0
0.0900000036 -0.00839745998 0
0.086666666 -0.00839745998 0
0.0833333358 -0.00839745998 0
0.0799999982 -0.00839745998 0
0.0766666681 -0.00839745998 0
0.0733333305 -0.00839745998 0
0.0700000003 -0.00839745998 0
0.0666666701 -0.00839745998 0
0.0633333325 -0.00839745998 0
0.0599999987 -0.00839745998 0
0.0566666685 -0.00839745998 0
0.0533333346 -0.00839745998 0
0.0500000007 -0.00839745998 0
0.148333326 -0.0112842107 0
0.144999996 -0.0112842107 0
0.141666666 -0.0112842107 0
0.138333336 -0.0112842107 0
0.135000005 -0.0112842107 0
0.13166666 -0.0112842107 0
0.12833333 -0.0112842107 0
0.125 -0.0112842107 0
0.12166667 -0.0112842107 0
0.118333332 -0.0112842107 0
0.115000002 -0.0112842107 0
0.111666664 -0.0112842107 0
0.108333334 -0.0112842107 0
0.104999997 -0.0112842107 0
0.101666667 -0.0112842107 0
0.0983333364 -0.0112842107 0
0.0949999988 -0.0112842107 0
0.0916666687 -0.0112842107 0
0.088333331 -0.0112842107 0
0.0850000009 -0.0112842107 0
0.0816666633 -0.0112842107 0
0.0783333331 -0.0112842107 0
0.075000003 -0.0112842107 0
0.0716666654 -0.0112842107 0
0.0683333352 -0.0112842107 0
0.0649999976 -0.0112842107 0
0.0616666675 -0.0112842107 0
0.0583333336 -0.0112842107 0
0.0549999997 -0.0112842107 0
0.0516666658 -0.0112842107 0
0.0483333319 -0.0112842107 0
0.146666661 -0.0141709624 0
0.143333331 -0.0141709624 0
0.140000001 -0.0141709624 0
0.13666667 -0.0141709624 0
0.13333334 -0.0141709624 0
0.129999995 -0.0141709624 0
0.126666665 -0.0141709624 0
0.123333335 -0.0141709624 0
0.119999997 -0.0141709624 0
0.116666667 -0.0141709624 0
0.113333337 -0.0141709624 0
0.109999999 -0.0141709624 0
0.106666669 -0.0141709624 0
0.103333332 -0.0141709624 0
0.100000001 -0.0141709624 0
0.0966666639 -0.0141709624 0
0.0933333337 -0.0141709624 0
0.0900000036 -0.0141709624 0
0.086666666 -0.0141709624 0
0.0833333358 -0.0141709624 0
0.0799999982 -0.0141709624 0
0.0766666681 -0.0141709624 0
0.0733333305 -0.0141709624 0
0.0700000003 -0.0141709624 0
0.0666666701 -0.0141709624 0
0.0633333325 -0.0141709624 0
0.0599999987 -0.0141709624 0
0.0566666685 -0.0141709624 0
0.0533333346 -0.0141709624 0
0.0500000007 -0.0141709624 0
0.0466666669 -0.0141709624 0
0.144999996 -0.0170577131 0
0.141666666 -0.0170577131 0
0.138333336 -0.0170577131 0
0.135000005 -0.0170577131 0
0.13166666 -0.0170577131 0
0.12833333 -0.0170577131 0
0.125 -0.0170577131 0
0.12166667 -0.0170577131 0
0.118333332 -0.0170577131 0
0.115000002 -0.0170577131 0
0.111666664 -0.0170577131 0
0.108333334 -0.0170577131 0
0.104999997 -0.0170577131 0
0.101666667 -0.0170577131 0
0.0983333364 -0.0170577131 0
0.0949999988 -0.0170577131 0
0.0916666687 -0.0170577131 0
0.088333331 -0.0170577131 0
0.0850000009 -0.0170577131 0
0.0816666633 -0.0170577131 0
0.0783333331 -0.0170577131 0
0.075000003 -0.0170577131 0
0.0716666654 -0.0170577131 0
0.0683333352 -0.0170577131 0
0.0649999976 -0.0170577131 0
0.0616666675 -0.0170577131 0
0.0583333336 -0.0170577131 0
0.0549999997 -0.0170577131 0
0.0516666658 -0.0170577131 0
0.0483333319 -0.0170577131 0
0.0450000018 -0.0170577131 0
0.143333331 -0.0199444648 0
0.140000001 -0.0199444648 0
0.13666667 -0.0199444648 0
0.13333334 -0.0199444648 0
0.129999995 -0.0199444648 0
0.126666665 -0.0199444648 0
0.123333335 -0.0199444648 0
0.119999997 -0.0199444648 0
0.116666667 -0.0199444648 0
0.113333337 -0.0199444648 0
0.109999999 -0.0199444648 0
0.106666669 -0.0199444648 0
0.103333332 -0.0199444648 0
0.100000001 -0.0199444648 0
0.0966666639 -0.0199444648 0
0.0933333337 -0.0199444648 0
0.0900000036 -0.0199444648 0
0.086666666 -0.0199444648 0
0.0833333358 -0.0199444648 0
0.0799999982 -0.0199444648 0
0.0766666681 -0.0199444648 0
0.0733333305 -0.0199444648 0
0.0700000003 -0.0199444648 0
0.0666666701 -0.0199444648 0
0.0633333325 -0.0199444648 0
0.0599999987 -0.0199444648 0
0.0566666685 -0.0199444648 0
0.0533333346 -0.0199444648 0
0.0500000007 -0.0199444648 0
0.0466666669 -0.0199444648 0
0.043333333 -0.0199444648 0
0.141666666 -0.0228312165 0
0.138333336 -0.0228312165 0
0.135000005 -0.0228312165 0
0.13166666 -0.0228312165 0
0.12833333 -0.0228312165 0
0.125 -0.0228312165 0
0.12166667 -0.0228312165 0
0.118333332 -0.0228312165 0
0.115000002 -0.0228312165 0
0.111666664 -0.0228312165 0
0.108333334 -0.0228312165 0
0.104999997 -0.0228312165 0
0.101666667 -0.0228312165 0
0.0983333364 -0.0228312165 0
0.0949999988 -0.0228312165 0
0.0916666687 -0.0228312165 0
0.088333331 -0.0228312165 0
0.0850000009 -0.0228312165 0
0.0816666633 -0.0228312165 0
0.0783333331 -0.0228312165 0
0.075000003 -0.0228312165 0
0.0716666654 -0.0228312165 0
0.0683333352 -0.0228312165 0
0.0649999976 -0.0228312165 0
0.0616666675 -0.0228312165 0
0.0583333336 -0.0228312165 0
0.0549999997 -0.0228312165 0
0.0516666658 -0.0228312165 0
0.0483333319 -0.0228312165 0
0.0450000018 -0.0228312165 0
0.0416666679 -0.0228312165 0
0.140000001 -0.0257179681 0
0.13666667 -0.0257179681 0
0.13333334 -0.0257179681 0
0.129999995 -0.0257179681 0
0.126666665 -0.0257179681 0
0.123333335 -0.0257179681 0
0.119999997 -0.0257179681 0
0.116666667 -0.0257179681 0
0.113333337 -0.0257179681 0
0.109999999 -0.0257179681 0
0.106666669 -0.0257179681 0
0.103333332 -0.0257179681 0
0.100000001 -0.0257179681 0
0.0966666639 -0.0257179681 0
0.0933333337 -0.0257179681 0
0.0900000036 -0.0257179681 0
0.086666666 -0.0257179681 0
0.0833333358 -0.0257179681 0
0.0799999982 -0.0257179681 0
0.0766666681 -0.0257179681 0
0.0733333305 -0.0257179681 0
0.0700000003 -0.0257179681 0
0.0666666701 -0.0257179681 0
0.0633333325 -0.0257179681 0
0.0599999987 -0.0257179681 0
0.0566666685 -0.0257179681 0
0.0533333346 -0.0257179681 0
0.0500000007 -0.0257179681 0
0.0466666669 -0.0257179681 0
0.043333333 -0.0257179681 0
0.0399999991 -0.0257179681 0
0.138333336 -0.0286047198 0
0.135000005 -0.0286047198 0
0.13166666 -0.0286047198 0
0.12833333 -0.0286047198 0
0.125 -0.0286047198 0
0.12166667 -0.0286047198 0
0.118333332 -0.0286047198 0
0.115000002 -0.0286047198 0
0.111666664 -0.0286047198 0
0.108333334 -0.0286047198 0
0.104999997 -0.0286047198 0
0.101666667 -0.0286047198 0
0.0983333364 -0.0286047198 0
0.0949999988 -0.0286047198 0
0.0916666687 -0.0286047198 0
0.088333331 -0.0286047198 0
0.0850000009 -0.0286047198 0
0.0816666633 -0.0286047198 0
0.0783333331 -0.0286047198 0
0.075000003 -0.0286047198 0
0.0716666654 -0.0286047198 0
0.0683333352 -0.0286047198 0
0.0649999976 -0.0286047198 0
0.0616666675 -0.0286047198 0
0.0583333336 -0.0286047198 0
0.0549999997 -0.0286047198 0
0.0516666658 -0.0286047198 0
0.0483333319 -0.0286047198 0
0.0450000018 -0.0286047198 0
0.0416666679 -0.0286047198 0
0.038333334 -0.0286047198 0
0.13666667 -0.0314914696 0
0.13333334 -0.0314914696 0
0.129999995 -0.0314914696 0
0.126666665 -0.0314914696 0
0.123333335 -0.0314914696 0
0.119999997 -0.0314914696 0
0.116666667 -0.0314914696 0
0.113333337 -0.0314914696 0
0.109999999 -0.0314914696 0
0.106666669 -0.0314914696 0
0.103333332 -0.0314914696 0
0.100000001 -0.0314914696 0
0.0966666639 -0.0314914696 0
0.0933333337 -0.0314914696 0
0.0900000036 -0.0314914696 0
0.086666666 -0.0314914696 0
0.0833333358 -0.0314914696 0
0.0799999982 -0.0314914696 0
0.0766666681 -0.0314914696 0
0.0733333305 -0.0314914696 0
0.0700000003 -0.0314914696 0
0.0666666701 -0.0314914696 0
0.0633333325 -0.0314914696 0
0.0599999987 -0.0314914696 0
0.0566666685 -0.0314914696 0
0.0533333346 -0.0314914696 0
0.0500000007 -0.0314914696 0
0.0466666669 -0.0314914696 0
0.043333333 -0.0314914696 0
0.0399999991 -0.0314914696 0
0.0366666652 -0.0314914696 0
0.135000005 -0.0343782231 0
0.13166666 -0.0343782231 0
0.12833333 -0.0343782231 0
0.125 -0.0343782231 0
0.12166667 -0.0343782231 0
0.118333332 -0.0343782231 0
0.115000002 -0.0343782231 0
0.111666664 -0.0343782231 0
0.108333334 -0.0343782231 0
0.104999997 -0.0343782231 0
0.101666667 -0.0343782231 0
0.0983333364 -0.0343782231 0
0.0949999988 -0.0343782231 0
0.0916666687 -0.0343782231 0
0.088333331 -0.0343782231 0
0.0850000009 -0.0343782231 0
0.0816666633 -0.0343782231 0
0.0783333331 -0.0343782231 0
0.075000003 -0.0343782231 0
0.0716666654 -0.0343782231 0
0.0683333352 -0.0343782231 0
0.0649999976 -0.0343782231 0
0.0616666675 -0.0343782231 0
0.0583333336 -0.0343782231 0
0.0549999997 -0.0343782231 0
0.0516666658 -0.0343782231 0
0.0483333319 -0.0343782231 0
0.0450000018 -0.0343782231 0
0.0416666679 -0.0343782231 0
0.038333334 -0.0343782231 0
0.0350000001 -0.0343782231 0
0.13333334 -0.0372649729 0
0.129999995 -0.0372649729 0
0.126666665 -0.0372649729 0
0.123333335 -0.0372649729 0
0.119999997 -0.0372649729 0
0.116666667 -0.0372649729 0
0.113333337 -0.0372649729 0
0.109999999 -0.0372649729 0
0.106666669 -0.0372649729 0
0.103333332 -0.0372649729 0
0.100000001 -0.0372649729 0
0.0966666639 -0.0372649729 0
0.0933333337 -0.0372649729 0
0.0900000036 -0.0372649729 0
0.086666666 -0.0372649729 0
0.0833333358 -0.0372649729 0
0.0799999982 -0.0372649729 0
0.0766666681 -0.0372649729 0
0.0733333305 -0.0372649729 0
0.0700000003 -0.0372649729 0
0.0666666701 -0.0372649729 0
0.0633333325 -0.0372649729 0
0.0599999987 -0.0372649729 0
0.0566666685 -0.0372649729 0
0.0533333346 -0.0372649729 0
0.0500000007 -0.0372649729 0
0.0466666669 -0.0372649729 0
0.043333333 -0.0372649729 0
0.0399999991 -0.0372649729 0
0.0366666652 -0.0372649729 0
0.0333333351 -0.0372649729 0
0.13166666 -0.0401517227 0
0.12833333 -0.0401517227 0
0.125 -0.0401517227 0
0.12166667 -0.0401517227 0
0.118333332 -0.0401517227 0
0.115000002 -0.0401517227 0
0.111666664 -0.0401517227 0
[...]
POINT_DATA 961
SCALARS Temp float 1
LOOKUP_TABLE default
557.3912876022536
515.4663169448008
477.00926451340405
442.6337944350855
412.4642668393443
386.4556863036007
364.4307770559975
346.1103448744148
331.1424637154583
319.1321981041401
309.66868497099694
302.3482253881394
296.7928310042498
292.66362791919505
289.6694017135779
287.5713840282369
286.18503974931804
285.3801923088539
285.08037029131197
285.2621817130058
285.9550663592845
287.241408219516
289.2565675712216
292.18815570591715
296.2735297556079
301.7948127676697
309.0707468319771
318.44563169811306
330.27749336184723
344.93275478481553
362.932843641959
515.466328673198
473.587929606789
435.8747432942546
402.468051418087
373.3961238552047
348.5406804797939
327.6647553989328
310.4412444809528
296.48351346820783
285.3743280887804
276.69197039806505
270.03162809270634
265.0220281415464
261.33668245118423
258.70085469087115
256.89485105776464
255.7550033239519
255.1733535908328
255.09695362576267
255.52741739510168
256.52087766200043
258.18812195685496
260.69434372471864
264.25759456722693
269.1449873633274
275.6659596668331
284.16200937764506
294.99373619005996
308.5266065743314
325.1230206083584
344.93277424294456
477.0092180328582
435.87471908046734
399.1056334264162
366.78535799709255
338.8605813810161
315.1503084401707
295.36886085948333
279.1537496479866
266.0956498234654
255.76624726334228
247.74230951480567
241.62531025074148
237.05586316892675
233.72316474416283
231.3705318739459
229.79773236345548
228.86149569813554
228.47507783380496
228.60775194499382
229.28460233759824
230.58663640182587
232.65079384553306
235.66915427634882
239.88629318113556
245.593974031816
253.12228132534446
262.8268720016747
275.0724224616781
290.21078352850225
308.5265979250325
330.2775056046559
442.6337302584452
402.46801180674913
366.7853543121006
335.6089860806947
308.8264832220449
286.20867734898053
267.4339970088094
252.11719631575943
239.83756355310766
230.16509983367246
222.68248106118148
217.00266434132192
212.78125975503738
209.72467788794705
207.5944780051413
206.20923037644272
205.44484293026744
205.23426710849645
205.5672686430214
206.49045669075977
208.10741674624023
210.57842148792906
214.11882522021753
218.9951406913985
225.5179537907156
234.03071069172654
244.89426632772947
258.46618599509515
275.07244024167954
294.99374932373706
318.4456233386818
412.4641977461441
373.396080063621
338.8605530585075
308.82658273905326
283.13555687437986
261.5234991756994
243.6461287180393
229.10674817277192
217.48291468290242
208.35022733379745
201.30247845098725
195.9671782488512
192.0163951979602
189.17381215773113
187.21844010648624
185.9862844048927
185.37073708109872
185.32258745426154
185.85007039402748
187.01905136119257
188.9530334125348
191.8323559826888
195.89158292892543
201.4142157045347
208.72368605824678
218.17000050052303
230.11184611973994
244.89425841249732
262.826866176278
284.16200901600905
309.07075150256554
386.45560843982383
348.540733699622
315.15037771426
286.2086382050158
261.52348254551276
240.80836213415728
223.70787751102964
209.8235030515516
198.7383694025037
190.0389022316971
183.3331265843891
178.26438904968728
174.52128291279453
171.8438265260477
170.0270107413619
168.92247609721704
168.43916077481018
168.54363964764053
169.26040625360017
170.67208819629732
172.91919008992556
176.19859804863836
180.7599040896046
186.89868990242553
194.94575154541099
205.25216100664792
218.16999538596448
234.03071240661433
253.12228745224385
275.66593658751333
301.79481134083744
364.4307949526299
327.66478899133506
295.3689215723413
267.43394849910123
243.64610483996597
223.7078689409548
207.26208921342496
193.91589738403843
183.2630263241534
174.9038482588417
168.46187870354268
163.5963276887485
160.01129064784328
157.46158693004512
155.75633103104195
154.76079202185554
154.3974085114056
154.6464062262573
155.54623475091813
157.19369186069832
159.74325982918597
163.4048235943855
168.438980751212
175.14895190179024
183.8684870520165
194.94574567661672
208.72367436088058
225.51793732117392
245.59397620673187
269.14498685654183
296.2735373226481
346.110363097041
310.44127602560917
279.15367642042315
252.11714683526674
229.10675446844624
209.82352503570598
193.91589043698255
181.00163516159742
170.68821168719123
162.5912535791414
156.3496080062303
151.6373830457788
148.17253327183775
145.72278697690865
144.1093582771655
143.20912289647092
142.95597601587318
143.34166779337306
144.4162997433803
146.28825638460518
149.12303701179286
153.1402162837277
158.60777915819287
165.8328894710151
175.1489474717753
186.8986828413323
201.4142205445802
218.99514302244214
239.88627725720647
264.2575743836347
292.18814378908894
331.1424723164673
296.48354930744944
266.09560967784887
239.837547959027
217.4829215365551
198.73834919857978
183.26301800135204
170.68823410485734
160.63648067395238
152.73847629075928
146.6474123756199
142.0505949257523
138.67793179856054
136.30804491398393
134.77222424119043
133.95700008505847
133.80576099228563
134.3197458326525
135.558502021118
137.6395437967425
140.73664743529545
145.0761522398365
150.93041122247266
158.60778365776514
168.43898514157704
180.75990561267722
195.8915818850544
214.11882038351965
235.6691568770394
260.69435340427026
289.25658706320473
319.1322470086522
285.37426377823823
255.7662189694593
230.16509084753204
208.3502380378657
190.03890165508756
174.9038596101955
162.59124517603394
152.73846986482195
144.99014200601752
139.01219394763768
134.50312640174104
131.20278762597596
128.89870079652044
127.43035715293752
126.69212680105187
126.63507008815017
127.26802743023575
128.65795789432735
130.92928171418205
134.26169250726355
138.88585378474855
145.07614856663972
153.1402163920459
163.4048222153747
176.19859530234743
191.83235230460934
210.57840131363955
232.6507784071566
258.18810474053146
287.2414002733454
309.66875886452385
276.69191816026296
247.74228880764065
222.68249337773815
201.30246213979925
183.3331272147884
168.46189112089837
156.349611043454
146.6474192754696
139.01219280471597
133.12054994053634
128.68017877956675
125.43891204554654
123.19131379490904
121.78338133368537
121.1156864170501
121.14534339751432
121.88710922086256
123.41356437430797
125.85412647865138
129.3924720291572
134.26169998482618
140.73664872898019
149.12303364688282
159.74325446208056
172.9191900712562
188.95303108183893
208.10741439849332
230.5866419649387
256.52088510008696
285.95505441145383
302.34816544755216
270.03159893133403
241.62530987943245
217.00268017251668
195.9671626252991
178.26440049525797
163.59631915609597
151.6373859572253
142.05058415757978
134.50312537752737
128.68018708313002
124.29669226696655
121.10663366716174
118.91000083332315
117.5578089167818
116.95540142695114
117.06455150237294
117.9044908045685
119.55192184040718
122.13974518211121
125.85413300233432
130.929285919744
137.63954172564317
146.2882659894003
157.19370201255632
170.6721003649474
187.0190447147125
206.49044901725367
229.28460515704373
255.52742052385838
285.26219544911294
296.7927975664471
265.022016536221
237.05587725957608
212.781241244557
192.01639771367581
174.52130233142722
160.01128713349658
148.17254052944728
138.67792824523514
131.20279271296545
125.4389076101398
121.10663061435258
117.96448035838759
115.81648214559999
114.51739288968474
113.976155877551
114.15804222208394
115.08559848328476
116.83847120792711
119.55191469493839
123.41356233310256
128.6579639720872
135.5584947610592
144.41629738883015
155.54623132361226
169.26040198928425
185.85006852833004
205.56726701020193
228.60775956360337
255.09693091981038
285.0803745631534
292.66359748267644
261.33668052995904
233.72319010429993
209.72466130591872
189.17381786500843
171.84381019313122
157.46159007169487
145.72277921497812
136.30804217750435
128.89870762813834
123.19130891422743
118.91000213479448
115.8164813741146
113.71764390931985
112.47093982905356
111.98798717920565
112.23665514658491
113.24193611675881
115.08559726085363
117.9044930231164
121.88710938399724
127.26803135317284
134.3197452771858
143.34167393574353
154.64641551207038
168.54363437735717
185.32258162135798
205.2342610031096
228.47507980592673
255.17335716624393
285.38019098943863
289.6693963871712
258.7008710494407
231.3705128385661
207.59447628695713
187.21846310186473
170.0270081789594
155.75634334425447
144.10935620909606
134.77222343519045
127.43035577962834
121.78338182723935
117.55781109206589
114.5173918372495
112.47094143956724
111.27783829627931
110.85168342867539
111.16233286883333
112.23665416531851
114.15804010469807
117.06454938375653
121.14534370764308
126.63506781519632
133.8057537950166
142.9559742445695
154.39740602730868
168.43915941534848
185.3707358184266
205.44484269012278
228.8614774576356
255.75500016122328
286.18503218561295
287.5713825229662
256.8948717998575
229.79771949157382
206.20923590074088
185.98626625441872
168.92247649246912
154.76077962976464
143.2091248371971
133.9570045683509
126.69212617810058
121.11568784107179
116.95539680962194
113.97615677180656
111.9879853356077
110.85168352815495
110.48241187875118
110.85168412897566
111.98798615576317
113.97615874275493
116.95539899321638
121.11568558442073
126.6921306884146
133.9570005920183
143.20913061480834
154.76078634654922
168.92247090451283
185.9862800477754
206.2092257399223
229.79773770164326
256.8948392870411
287.5713848583965
286.18506221307473
255.75497982782488
228.86150332449745
205.44486688093642
185.3707326003518
168.4391755728834
154.3974071759065
142.95598354484153
133.80575404309982
126.63507462348318
121.14534962743836
117.06454979306548
114.1580460103313
112.23665498588714
111.1623335329304
110.85168458804033
111.27783927343981
112.47093903787734
114.51739313077732
117.55780812108003
121.78337804127919
127.43035696856182
134.77221722150315
144.1093564312194
155.75633082265708
170.0270118198859
187.2184428368872
207.59445392764016
231.3705294424024
258.70083817775765
289.66939633633075
285.38022355128317
255.17333662863945
228.47509087738425
205.2342442650004
185.3225875691559
168.54362577888162
154.6464081444535
143.34167854006472
134.31973948724269
127.26803413703358
121.88710644513542
117.90449037285553
115.08559595437323
113.24193506694532
112.23665613268895
111.98798738619764
112.47094020945622
113.71764527168553
115.81648288367333
118.91000034086284
123.19131230251807
128.89870425319623
136.30804659178247
145.72278430150837
157.46158489899943
171.84382112200802
189.17380789522576
209.724675193172
233.7231567839627
261.3366764852001
292.66362772186466
285.08033818559204
255.0969436850699
228.6077713492629
205.5672493730678
185.85007544275075
169.26039328766285
155.5462342401825
144.4162908190394
135.55849769296537
128.65796693890147
123.41355918571604
119.55191971163056
116.83846984353322
115.08559742757063
114.15804207723987
113.97615589731345
114.51739148180823
115.81648333394644
117.96447887873451
121.10662907246173
125.43891049346952
131.20279060850567
138.6779322435629
148.1725351931144
160.01129649498233
174.52129265845377
192.0163873681209
212.78126572345442
237.05585846796058
265.0220264452374
296.79284119675435
285.262175417052
255.5274321974084
229.28458495497543
206.49045503155557
187.01903403764948
170.67209129806298
157.19370730515695
146.2882588754736
137.63954513082538
130.9292822088721
125.85412965735759
122.13974337670034
119.55192031464088
117.90449277647491
117.06455138805678
116.95540143250345
117.5578097665279
118.91000177711071
121.10663228466265
124.29669473547513
128.68018428281079
134.50312870190078
142.05058792122486
151.6373813082331
163.5963277233958
178.2643911633125
195.96717362003997
217.00264917623565
241.62530455670503
270.03162457324345
302.34821992837055
285.9550651632807
256.5208960458492
230.58662063444785
208.10742149895606
188.95302057597158
172.9191933530656
159.74324653087416
149.12303720697625
140.73665238766228
134.26169610755178
129.39247850940828
125.85412472786524
123.41356295169611
121.88710873220448
121.14534300759158
121.11568594296614
121.78338210066948
123.1913126848594
125.43891090134726
128.68018085451706
133.1205481412954
139.01219577007603
146.64741464115403
156.34961842884297
168.46188242324132
183.33311792499657
201.30248305887955
222.68247690207878
247.7422998720277
276.69196416884006
309.6686771824786
287.2414087606738
258.18807965685556
232.65078422907206
210.57838872475025
191.83234173960676
176.19860144813333
163.40481393616716
153.14022056237332
145.07614418155273
138.88584982732124
134.261690253545
130.9292797392136
128.65796084618498
127.26802708934318
126.63506980489424
126.69212725079227
127.43035765293132
128.89869978507585
131.2027893853041
134.50312413718018
139.01219645190602
144.99014475169957
152.73846582124784
162.59125195696737
174.90385135945647
190.03891100205018
208.350211185645
230.16508832267522
255.7662487692406
285.37433532721155
319.1322098919153
289.25661695408655
260.69434984088497
235.6691841305977
214.1188266384923
195.89160257644446
180.7599121688833
168.43900404153555
158.60780180489144
150.93041965786938
145.07617255537386
140.73665722897047
137.63955351033854
135.55851234409877
134.31975588315703
133.8057718376255
133.95701077457505
134.77223333199782
136.3080536163114
138.67794226452935
142.05060180331125
146.64742219648878
152.73847909136398
160.63649218381263
170.688230919685
183.26301307689977
198.73836903005204
217.4829078915978
239.83755925502496
266.0956556628362
296.4834777315456
331.1424423472492
292.18814030404883
264.2576038582263
239.88628454165226
218.9951511292408
201.41424622590776
186.8986912100448
175.14896912213334
165.8329004450234
158.60778997126474
153.14022839123712
149.12304895863372
146.28827422164693
144.41631295255098
143.34168073654757
142.955989346657
143.20913596808904
144.10937017419292
145.72280041167295
148.17254319508473
151.63739607652323
156.34962036878719
162.591259600073
170.68822549589154
181.00163510581186
193.91590408268465
209.82350575355485
229.10675559476994
252.1171764732105
279.1537427019428
310.441236475991
346.110349010405
296.2735269545687
269.14500778933353
245.59397476623957
225.51795267461125
208.72367473742187
194.94576060482206
183.86850172755834
175.14895599019675
168.43899889987503
163.4048299417138
159.74326630172098
157.19369912707438
155.54624184421655
154.6464152338583
154.39741670027132
154.76079927606304
155.7563382026687
157.4615954348251
160.0112966127798
163.59633619650998
168.46188188151268
174.90385886128448
183.26302495238428
193.91589499775404
207.26210848689863
223.70785920199532
243.64611754931227
267.43399213603834
295.3688543537932
327.66475718500817
364.4307981799736
301.7948202225254
275.665922639828
253.1222757553255
234.03072099929278
218.16998619758192
205.25216720320532
194.9457466089488
186.89868537675406
180.75990133678502
176.1985954725917
172.9191947612151
170.67208769824424
169.2604056720466
168.54363961512425
168.43916072056277
168.9224756739116
170.0270115996042
171.8438250787391
174.5212843285403
178.26439030734588
183.33312329530003
190.03890600290703
198.73836207579527
209.82350807229545
223.70785413150168
240.80835696772576
261.5235025491564
286.2086897811482
315.1503275768297
348.5406990182095
386.4556074330301
309.0707467105761
284.16198265487327
262.8268588022708
244.89423571107662
230.11183957482407
218.169994053845
208.72366841892506
201.4142137098161
195.89156829989207
191.83234166910248
188.95302004057766
187.0190379155386
185.8500597031839
185.32257553079506
185.37072473035388
185.98627225396
187.21842905364903
189.17379939873783
192.01638478954533
195.96716389991548
201.3024706440163
208.35020975723177
217.4828966762744
229.10674913857642
243.6461038071866
261.52349356082266
283.13557736872707
308.826497182367
338.86049338638594
373.39604242540554
412.4641862001926
318.44563924348785
294.9937676906156
275.0724798504806
258.4662065522701
244.89430241406217
234.030734565152
225.51797779211637
218.9951661865049
214.1188507028712
210.57845473797502
208.10744424206047
206.4904839484653
205.56729626819785
205.23429458617838
205.4448702397834
206.2092583607413
207.5945039639312
209.72470583127492
212.78128700558005
217.00268721404174
222.68250908461414
230.16511714167927
239.83759007154077
252.11719558611497
267.43400972799276
286.2087089479556
308.8265381921289
335.60893899738346
366.7853101889608
402.4679831117359
442.6337355134853
330.27751796869705
308.5266312642157
290.21080015250413
275.0724547099564
262.82690368986596
253.12230103013343
245.5940095853667
239.88631552625975
235.66917679090946
232.650817121939
230.5866594174845
229.28462833283353
228.60777629025597
228.47510180636056
228.8615197234108
229.79775692056205
231.37055470066494
233.72318908013108
237.05588361542
241.6253354971665
247.74232519142322
255.76626126777873
266.095678830576
279.15375288256087
295.3688782052393
315.1503449557726
338.8605134483897
366.7853048672051
399.1055878508975
435.87468422799975
477.0092136055773
344.9327775833943
325.12304288869854
308.5266084092029
294.99375303997266
284.16201388032397
275.6659642890098
269.14499345989947
264.2576007603344
260.6943580189767
258.18813044113057
256.5208858518469
255.52742600416127
255.0969621995925
255.17336233406732
255.75501262716878
256.89485881670316
258.700864303425
261.33669154489974
265.0220336768332
270.03163834666526
276.69197122207925
285.37433719262214
296.4834978341023
310.44124052562455
327.6647673243496
348.54071176346173
373.3960569787297
402.4679807989445
435.87467522493193
473.58787014212487
515.466239582462
362.9328590978866
344.93274873286947
330.2775016729814
318.44563920265495
309.07074205610655
301.79482359618396
296.2735273987664
292.1881542134145
289.256566722582
287.24140648906643
285.95506791124035
285.26218149374597
285.0803701269893
285.3801921467141
286.1850400692737
287.5713830577923
289.6694017981956
292.66362509510924
296.79283247529884
302.34821833741455
309.66867655233193
319.1322036812015
331.1424461375476
346.1103394968386
364.4307878194005
386.45559962948954
412.46419271947485
442.6337217560164
477.00918961152524
515.4662236019366
557.390923001643
