# vtk DataFile Version 2.0
Unstructured Grid Example
ASCII
DATASET UNSTRUCTURED_GRID

POINTS 961 float
0.150000006 -0.00839745998 0
0.146666661 -0.00839745998 0
0.143333331 -0.00839745998 0
0.140000001 -0.00839745998 0
0.13666667 -0.00839745998 0
0.13333334 -0.00839745998 0
0.129999995 -0.00839745998 0
0.126666665 -0.00839745998 0
0.123333335 -0.00839745998 0
0.119999997 -0.00839745998 0
0.116666667 -0.00839745998 0
0.113333337 -0.00839745998 0
0.109999999 -0.00839745998 0
0.106666669 -0.00839745998 0
0.103333332 -0.00839745998 0
0.100000001 -0.00839745998 0
0.0966666639 -0.00839745998 0
0.0933333337 -0.00839745998 0
0.0900000036 -0.00839745998 0
0.086666666 -0.00839745998 0
0.0833333358 -0.00839745998 0
0.0799999982 -0.00839745998 0
0.0766666681 -0.00839745998 0
0.0733333305 -0.00839745998 0
0.0700000003 -0.00839745998 0
0.0666666701 -0.00839745998 0
0.0633333325 -0.00839745998 0
0.0599999987 -0.00839745998 0
0.0566666685 -0.00839745998 0
0.0533333346 -0.00839745998 0
0.0500000007 -0.00839745998 0
0.148333326 -0.0112842107 0
0.144999996 -0.0112842107 0
0.141666666 -0.0112842107 0
0.138333336 -0.0112842107 0
0.135000005 -0.0112842107 0
0.13166666 -0.0112842107 0
0.12833333 -0.0112842107 0
0.125 -0.0112842107 0
0.12166667 -0.0112842107 0
0.118333332 -0.0112842107 0
0.115000002 -0.0112842107 0
0.111666664 -0.0112842107 0
0.108333334 -0.0112842107 0
0.104999997 -0.0112842107 0
0.101666667 -0.0112842107 0
0.0983333364 -0.0112842107 0
0.0949999988 -0.0112842107 0
0.0916666687 -0.0112842107 0
0.088333331 -0.0112842107 0
0.0850000009 -0.0112842107 0
0.0816666633 -0.0112842107 0
0.0783333331 -0.0112842107 0
0.075000003 -0.0112842107 0
0.0716666654 -0.0112842107 0
0.0683333352 -0.0112842107 0
0.0649999976 -0.0112842107 0
0.0616666675 -0.0112842107 0
0.0583333336 -0.0112842107 0
0.0549999997 -0.0112842107 0
0.0516666658 -0.0112842107 0
0.0483333319 -0.0112842107 0
0.146666661 -0.0141709624 0
0.143333331 -0.0141709624 0
0.140000001 -0.0141709624 0
0.13666667 -0.0141709624 0
0.13333334 -0.0141709624 0
0.129999995 -0.0141709624 0
0.126666665 -0.0141709624 0
0.123333335 -0.0141709624 0
0.119999997 -0.0141709624 0
0.116666667 -0.0141709624 0
0.113333337 -0.0141709624 0
0.109999999 -0.0141709624 0
0.106666669 -0.0141709624 0
0.103333332 -0.0141709624 0
0.100000001 -0.0141709624 0
0.0966666639 -0.0141709624 0
0.0933333337 -0.0141709624 0
0.0900000036 -0.0141709624 0
0.086666666 -0.0141709624 0
0.0833333358 -0.0141709624 0
0.0799999982 -0.0141709624 0
0.0766666681 -0.0141709624 0
0.0733333305 -0.0141709624 0
0.0700000003 -0.0141709624 0
0.0666666701 -0.0141709624 0
0.0633333325 -0.0141709624 0
0.0599999987 -0.0141709624 0
0.0566666685 -0.0141709624 0
0.0533333346 -0.0141709624 0
0.0500000007 -0.0141709624 0
0.0466666669 -0.0141709624 0
0.144999996 -0.0170577131 0
0.141666666 -0.0170577131 0
0.138333336 -0.0170577131 0
0.135000005 -0.0170577131 0
0.13166666 -0.0170577131 0
0.12833333 -0.0170577131 0
0.125 -0.0170577131 0
0.12166667 -0.0170577131 0
0.118333332 -0.0170577131 0
0.115000002 -0.0170577131 0
0.111666664 -0.0170577131 0
0.108333334 -0.0170577131 0
0.104999997 -0.0170577131 0
0.101666667 -0.0170577131 0
0.0983333364 -0.0170577131 0
0.0949999988 -0.0170577131 0
0.0916666687 -0.0170577131 0
0.088333331 -0.0170577131 0
0.0850000009 -0.0170577131 0
0.0816666633 -0.0170577131 0
0.0783333331 -0.0170577131 0
0.075000003 -0.0170577131 0
0.0716666654 -0.0170577131 0
0.0683333352 -0.0170577131 0
0.0649999976 -0.0170577131 0
0.0616666675 -0.0170577131 0
0.0583333336 -0.0170577131 0
0.0549999997 -0.0170577131 0
0.0516666658 -0.0170577131 0
0.0483333319 -0.0170577131 0
0.0450000018 -0.0170577131 0
0.143333331 -0.0199444648 0
0.140000001 -0.0199444648 0
0.13666667 -0.0199444648 0
0.13333334 -0.0199444648 0
0.129999995 -0.0199444648 0
0.126666665 -0.0199444648 0
0.123333335 -0.0199444648 0
0.119999997 -0.0199444648 0
0.116666667 -0.0199444648 0
0.113333337 -0.0199444648 0
0.109999999 -0.0199444648 0
0.106666669 -0.0199444648 0
0.103333332 -0.0199444648 0
0.100000001 -0.0199444648 0
0.0966666639 -0.0199444648 0
0.0933333337 -0.0199444648 0
0.0900000036 -0.0199444648 0
0.086666666 -0.0199444648 0
0.0833333358 -0.0199444648 0
0.0799999982 -0.0199444648 0
0.0766666681 -0.0199444648 0
0.0733333305 -0.0199444648 0
0.0700000003 -0.0199444648 0
0.0666666701 -0.0199444648 0
0.0633333325 -0.0199444648 0
0.0599999987 -0.0199444648 0
0.0566666685 -0.0199444648 0
0.0533333346 -0.0199444648 0
0.0500000007 -0.0199444648 0
0.0466666669 -0.0199444648 0
0.043333333 -0.0199444648 0
0.141666666 -0.0228312165 0
0.138333336 -0.0228312165 0
0.135000005 -0.0228312165 0
0.13166666 -0.0228312165 0
0.12833333 -0.0228312165 0
0.125 -0.0228312165 0
0.12166667 -0.0228312165 0
0.118333332 -0.0228312165 0
0.115000002 -0.0228312165 0
0.111666664 -0.0228312165 0
0.108333334 -0.0228312165 0
0.104999997 -0.0228312165 0
0.101666667 -0.0228312165 0
0.0983333364 -0.0228312165 0
0.0949999988 -0.0228312165 0
0.0916666687 -0.0228312165 0
0.088333331 -0.0228312165 0
0.0850000009 -0.0228312165 0
0.0816666633 -0.0228312165 0
0.0783333331 -0.0228312165 0
0.075000003 -0.0228312165 0
0.0716666654 -0.0228312165 0
0.0683333352 -0.0228312165 0
0.0649999976 -0.0228312165 0
0.0616666675 -0.0228312165 0
0.0583333336 -0.0228312165 0
0.0549999997 -0.0228312165 0
0.0516666658 -0.0228312165 0
0.0483333319 -0.0228312165 0
0.0450000018 -0.0228312165 0
0.0416666679 -0.0228312165 0
0.140000001 -0.0257179681 0
0.13666667 -0.0257179681 0
0.13333334 -0.0257179681 0
0.129999995 -0.0257179681 0
0.126666665 -0.0257179681 0
0.123333335 -0.0257179681 0
0.119999997 -0.0257179681 0
0.116666667 -0.0257179681 0
0.113333337 -0.0257179681 0
0.109999999 -0.0257179681 0
0.106666669 -0.0257179681 0
0.103333332 -0.0257179681 0
0.100000001 -0.0257179681 0
0.0966666639 -0.0257179681 0
0.0933333337 -0.0257179681 0
0.0900000036 -0.0257179681 0
0.086666666 -0.0257179681 0
0.0833333358 -0.0257179681 0
0.0799999982 -0.0257179681 0
0.0766666681 -0.0257179681 0
0.0733333305 -0.0257179681 0
0.0700000003 -0.0257179681 0
0.0666666701 -0.0257179681 0
0.0633333325 -0.0257179681 0
0.0599999987 -0.0257179681 0
0.0566666685 -0.0257179681 0
0.0533333346 -0.0257179681 0
0.0500000007 -0.0257179681 0
0.0466666669 -0.0257179681 0
0.043333333 -0.0257179681 0
0.0399999991 -0.0257179681 0
0.138333336 -0.0286047198 0
0.135000005 -0.0286047198 0
0.13166666 -0.0286047198 0
0.12833333 -0.0286047198 0
0.125 -0.0286047198 0
0.12166667 -0.0286047198 0
0.118333332 -0.0286047198 0
0.115000002 -0.0286047198 0
0.111666664 -0.0286047198 0
0.108333334 -0.0286047198 0
0.104999997 -0.0286047198 0
0.101666667 -0.0286047198 0
0.0983333364 -0.0286047198 0
0.0949999988 -0.0286047198 0
0.0916666687 -0.0286047198 0
0.088333331 -0.0286047198 0
0.0850000009 -0.0286047198 0
0.0816666633 -0.0286047198 0
0.0783333331 -0.0286047198 0
0.075000003 -0.0286047198 0
0.0716666654 -0.0286047198 0
0.0683333352 -0.0286047198 0
0.0649999976 -0.0286047198 0
0.0616666675 -0.0286047198 0
0.0583333336 -0.0286047198 0
0.0549999997 -0.0286047198 0
0.0516666658 -0.0286047198 0
0.0483333319 -0.0286047198 0
0.0450000018 -0.0286047198 0
0.0416666679 -0.0286047198 0
0.038333334 -0.0286047198 0
0.13666667 -0.0314914696 0
0.13333334 -0.0314914696 0
0.129999995 -0.0314914696 0
0.126666665 -0.0314914696 0
0.123333335 -0.0314914696 0
0.119999997 -0.0314914696 0
0.116666667 -0.0314914696 0
0.113333337 -0.0314914696 0
0.109999999 -0.0314914696 0
0.106666669 -0.0314914696 0
0.103333332 -0.0314914696 0
0.100000001 -0.0314914696 0
0.0966666639 -0.0314914696 0
0.0933333337 -0.0314914696 0
0.0900000036 -0.0314914696 0
0.086666666 -0.0314914696 0
0.0833333358 -0.0314914696 0
0.0799999982 -0.0314914696 0
0.0766666681 -0.0314914696 0
0.0733333305 -0.0314914696 0
0.0700000003 -0.0314914696 0
0.0666666701 -0.0314914696 0
0.0633333325 -0.0314914696 0
0.0599999987 -0.0314914696 0
0.0566666685 -0.0314914696 0
0.0533333346 -0.0314914696 0
0.0500000007 -0.0314914696 0
0.0466666669 -0.0314914696 0
0.043333333 -0.0314914696 0
0.0399999991 -0.0314914696 0
0.0366666652 -0.0314914696 0
0.135000005 -0.0343782231 0
0.13166666 -0.0343782231 0
0.12833333 -0.0343782231 0
0.125 -0.0343782231 0
0.12166667 -0.0343782231 0
0.118333332 -0.0343782231 0
0.115000002 -0.0343782231 0
0.111666664 -0.0343782231 0
0.108333334 -0.0343782231 0
0.104999997 -0.0343782231 0
0.101666667 -0.0343782231 0
0.0983333364 -0.0343782231 0
0.0949999988 -0.0343782231 0
0.0916666687 -0.0343782231 0
0.088333331 -0.0343782231 0
0.0850000009 -0.0343782231 0
0.0816666633 -0.0343782231 0
0.0783333331 -0.0343782231 0
0.075000003 -0.0343782231 0
0.0716666654 -0.0343782231 0
0.0683333352 -0.0343782231 0
0.0649999976 -0.0343782231 0
0.0616666675 -0.0343782231 0
0.0583333336 -0.0343782231 0
0.0549999997 -0.0343782231 0
0.0516666658 -0.0343782231 0
0.0483333319 -0.0343782231 0
0.0450000018 -0.0343782231 0
0.0416666679 -0.0343782231 0
0.038333334 -0.0343782231 0
0.0350000001 -0.0343782231 0
0.13333334 -0.0372649729 0
0.129999995 -0.0372649729 0
0.126666665 -0.0372649729 0
0.123333335 -0.0372649729 0
0.119999997 -0.0372649729 0
0.116666667 -0.0372649729 0
0.113333337 -0.0372649729 0
0.109999999 -0.0372649729 0
0.106666669 -0.0372649729 0
0.103333332 -0.0372649729 0
0.100000001 -0.0372649729 0
0.0966666639 -0.0372649729 0
0.0933333337 -0.0372649729 0
0.0900000036 -0.0372649729 0
0.086666666 -0.0372649729 0
0.0833333358 -0.0372649729 0
0.0799999982 -0.0372649729 0
0.0766666681 -0.0372649729 0
0.0733333305 -0.0372649729 0
0.0700000003 -0.0372649729 0
0.0666666701 -0.0372649729 0
0.0633333325 -0.0372649729 0
0.0599999987 -0.0372649729 0
0.0566666685 -0.0372649729 0
0.0533333346 -0.0372649729 0
0.0500000007 -0.0372649729 0
0.0466666669 -0.0372649729 0
0.043333333 -0.0372649729 0
0.0399999991 -0.0372649729 0
0.0366666652 -0.0372649729 0
0.0333333351 -0.0372649729 0
0.13166666 -0.0401517227 0
0.12833333 -0.0401517227 0
0.125 -0.0401517227 0
0.12166667 -0.0401517227 0
0.118333332 -0.0401517227 0
0.115000002 -0.0401517227 0
0.111666664 -0.0401517227 0
[...]
POINT_DATA 961
SCALARS Temp float 1
LOOKUP_TABLE default
501.39061983018024
456.59908592848774
416.5660966177706
382.0177733056889
352.95054325072226
329.09712573754143
310.00345389716136
295.0958335130641
283.7425022447346
275.30785346884505
269.19434712611076
264.87069732994286
261.8870838682929
259.8793012478437
258.56488961125484
257.73469197698216
257.24268845070907
256.9966324506678
256.9512101300066
257.1048180681524
257.5003954953015
258.2300724863824
259.44266669417
261.352333999437
264.2458231826245
268.48551086970696
274.50525829036343
282.7973359597393
293.8917226953683
308.33685015547576
326.8629521731197
456.59909880705806
412.30260149212336
373.66816568834986
340.7343553819206
313.3433933783308
291.11752282513885
273.5236164997035
259.9369490377678
249.7010933848886
242.17730006785857
236.78093189603007
233.00385019825328
230.42450523885407
228.70799130210852
227.59966319385953
226.91537843913343
226.5312934378424
226.37535145900105
226.42193895869224
226.6905345398628
227.24846863583335
228.21720848265713
229.78083552983972
232.19452344933407
235.79019608231127
240.97633124961322
248.2290668367714
258.0736648281567
271.057510009398
287.72458258363133
308.33686990007044
416.5660492512846
373.6681418707342
336.61323352471044
305.3396119983427
279.56749347891514
258.83604378123374
242.55980443740228
230.08848491643283
220.76201599338873
213.954286892772
209.1035172355839
205.72961429151962
203.4400965399
201.9274655018093
200.9614608295796
200.37908266334043
200.07506838868713
199.99466233959117
200.12994014321245
200.5202297353087
201.25647731415262
202.48864226320353
204.4344218804343
207.3867261184933
211.71691477442323
217.87053196933618
226.35296887498745
237.70366095881414
252.45693432265864
271.057501046622
293.89173443917264
382.0177100348249
340.7343178801697
305.3396096870987
275.68015166144744
251.3983464534133
231.98169031392987
216.81865303359737
205.25517274884012
196.64354133142103
190.3803810692332
185.93175286436818
182.84645501459832
180.75907814037595
179.3860368599368
178.51740224698332
178.00747811773294
177.76636713639675
177.75419623881976
177.97903891624173
178.49884169889538
179.42694825585733
180.94003012168733
183.28634548131734
186.7915326553284
191.85877133910904
198.95999260678988
208.61590327604003
221.3627987082496
237.70367825856832
258.07367811449205
282.797327476322
352.9504784076142
313.3433541322083
279.56746914716575
251.39843591879884
228.4300774243117
210.12523536752732
195.86879421076654
185.0190658057503
176.95108692745416
171.08916842148952
166.9281155554078
164.04361669101118
162.09379504333313
160.8148095388467
160.01306421504248
159.55673409169472
159.36858635475863
159.4216280044232
159.73839878847204
160.39404107402157
161.52250544975738
163.32444165048736
166.07441823440277
170.12459116836135
175.90148081818384
183.89289839308364
194.62310194594258
208.61589561340236
226.352963374651
248.22906601227692
274.50526343024126
329.09705536876675
291.11757066457875
258.83610624481184
231.9816535354003
210.125220183518
192.7264976072642
179.18320320834536
168.87643619771197
161.20900354475424
155.63386736374505
151.67262733219192
148.92422336593646
147.06612647002518
145.85011828771093
145.09536447794142
144.68103340699946
144.5403592120822
144.65752449818694
145.06802135387636
145.86246715386284
147.19305030687988
149.28090314774454
152.42193263746117
156.98815184652915
163.4212508046611
172.21610659364524
183.89289395248693
198.9599942007627
217.87053852686125
240.97630859411913
268.48550770854956
310.00346893111987
273.52364671033155
242.5598606252099
216.8186085347087
195.86877382391447
179.18319656963052
166.18259307377357
156.2760183875585
148.89488369033438
143.51888178341562
139.69276383252745
137.0345120017631
135.23675330612366
134.06323982373863
133.34292100486218
132.96364055908737
132.8673080538806
133.04775164779429
133.55182845639243
134.48362264186767
136.01074919002465
138.3708988045917
141.8761560726353
146.91206698876908
153.9286215820832
163.42124558330698
175.9014703335101
191.85875650998918
211.71691551622752
235.7901949650941
264.2458312264634
295.0958510621996
259.9369794743367
230.0884176670927
205.25512962352093
185.01906909133947
168.87645383521578
156.27601324979048
146.65556522655476
139.47321465918623
134.2317841473288
130.49485258033545
127.89527823144022
126.1371107611617
124.99303972771831
124.29942361803253
123.95095719035402
123.89672882472352
124.13877373823057
124.73363584454663
125.79665279350556
127.5078490336529
130.11753302772445
133.9491250435959
139.3962916557392
146.912063420305
156.9881463199549
170.12459482540697
186.7915345991488
207.38671041681798
232.1945034817387
261.3523228911763
283.74251089099715
249.70112884780718
220.76197303930343
196.6435241205886
176.95109180567673
161.20898745813682
148.89487793646296
139.47323050035774
132.4252507603798
127.2725600487324
123.5933854868884
121.03168578725996
119.29987440198109
118.17718396887179
117.50554061410492
117.18504596470302
117.17067328221239
117.47128320942856
118.15139020125275
119.33531416230126
121.21252496239619
124.04231727612101
128.1553067238588
133.94912860309006
141.87615879340095
152.42193315963286
166.0744169381503
183.2863408081507
204.4344250560217
229.78084409663757
259.44268600796846
275.3078978825847
242.17723503981517
213.9542602920328
190.3803743992824
171.08918066751644
155.63386625107896
143.5188908695614
134.23177883180188
127.27255597516546
122.17732244425264
118.53523872632337
115.99823898250683
114.28469907330286
113.17856363268577
112.5259337999117
112.23115372961846
112.25393688273563
112.60864992708895
113.3661012758775
114.65742879096906
116.67888213985889
119.69565494715434
124.04231443164761
130.11753288281082
138.3708978869528
149.2809013324333
163.32443946938764
180.94001041386238
202.48862678063634
228.21719125925435
258.2300643887045
269.1944141273376
236.78087970087105
209.1034995408806
185.93176163015693
166.92810085786655
151.67262818240727
139.69277467369395
130.49485408357808
123.59339001128075
118.53523807518565
114.91733269864
112.39718133220052
110.69730699921342
109.60499218332248
108.96945060763046
108.69830998633287
108.75501390685369
109.15821513592388
109.98347378135189
111.36682734781267
113.50907277733853
116.67888695802313
121.21252590922614
127.50784645925455
136.01074514810463
147.1930495133602
161.5225026791155
179.42694602538376
201.25648291665033
227.2484766839721
257.5003828359416
264.870635921771
233.00381760346127
205.72961196587363
182.84646894119186
164.04360334326455
148.92423103232102
137.03450452026357
127.89528013038574
121.03167815583264
115.99823849827742
112.39718599698202
109.88978920072559
108.20136912156694
107.12154966773649
106.50183517096868
106.25234109639261
106.33936205954795
106.7847597822635
107.6675165071448
109.12700350414782
111.36683138179943
114.65743145788414
119.33531267933722
125.79665941918546
134.48363027284813
145.86247736975758
160.3940348742106
178.49883456088463
200.52023183730097
226.69053716864184
257.10483197303483
261.8870515102277
230.4244953390556
203.44011216371075
180.75906058834286
162.09379714650683
147.06614352025673
135.2367510104598
126.13711724340915
119.29987141680085
114.2847022977378
110.6973044404541
108.20136743773084
106.52401068252577
105.45646363262377
104.85187692614366
104.622215934382
104.73588756643872
105.21707262079867
106.14710948551003
107.6675124380299
109.98347257205987
113.3661050930973
118.15138486229
124.73363401389395
133.55182572240184
145.06801782623234
159.73839684703802
177.9790372073406
200.12994750335395
226.4219160076283
256.95121436886336
259.8792735999792
228.70798843735457
201.9274894728014
179.38602149457492
160.8148145512983
145.85010539740023
134.0632414852848
124.99303360471839
118.17718183371187
113.17856818442233
109.60498930318596
107.12155011948619
105.45646319756659
104.40201340095916
103.81250014068584
103.60124534840422
103.7381915164645
104.2491595822618
105.21707193985169
106.78476099034539
109.1582150872657
112.60865235239261
117.47128273140075
124.13877840232318
133.0477589543308
144.6575197757651
159.42162257084877
177.75419037907136
199.99466423271335
226.3753552133412
256.9966313645142
258.564885892953
227.59968077122912
200.96144391231027
178.51740201608658
160.01308459181692
145.0953621901142
133.3429312504707
124.29942229395404
117.50554033118009
112.52593283737026
108.96945079984162
106.50183638108462
104.85187639546452
103.81250089869857
103.23882229651586
103.04516639842451
103.20262097337138
103.73819100772842
104.7358864090553
106.33936077665726
108.75501402281789
112.25393531476564
117.17066807843591
123.89672731174332
132.86730570785144
144.54035777353934
159.3685852661878
177.76636679731735
200.0750505887005
226.53128969541476
257.24268010651724
257.7346915771527
226.91540023465305
200.37906954822037
178.0074827158122
159.5567180259304
144.6810336423254
132.9636308756258
123.95095831083553
117.18504890413075
112.23115312823694
108.69831074833426
106.25233833883738
104.62221630674313
103.60124439834516
103.04516644126859
102.86912835153667
103.0451667368616
103.60124481134801
104.62221740914696
106.2523396003501
108.69830942841641
112.23115621673156
117.18504611420853
123.95096280403699
132.96363628628444
144.6810290786232
159.55673022933865
178.00747330164702
200.37908741256626
226.9153677246669
257.7346933792852
257.2427110122207
226.5312700593426
200.07507600012823
177.76638984297952
159.3685823996365
144.5403717233629
132.86730659551475
123.89673421324375
117.17066822938011
112.253939677991
108.75501760171075
106.3393609568723
104.73588952651566
103.73819140489745
103.20262129336363
103.04516695832105
103.23882276793972
103.81249969722528
104.85187701283114
106.50183457650283
108.96944834963244
112.52593328523997
117.505535652528
124.29942196041385
133.34292047729983
145.09536456914088
160.01306544996532
178.5173801217258
200.96145801447125
227.59964625090228
258.56488269300985
256.99666398087686
226.37533424633276
199.99467485733967
177.75417462363066
159.42162757906434
144.65751226286093
133.04775272658628
124.13878182992961
117.47127839909675
112.60865410497293
109.15821323505445
106.78475937660654
105.217071236335
104.24915903289829
103.73819201907635
103.60124545167261
103.81250031952277
104.40201409937684
105.45646399089186
107.12154914006715
109.60499140833647
113.17856596202377
118.17718496477076
124.99303734563001
134.06323744632417
145.8501144087181
160.81480566582644
179.38603440529408
201.92745709945223
228.70798376007266
259.8793020839064
256.9511774203223
226.4219286901009
200.12995888570663
177.97902010255768
159.73840292150646
145.06801004832937
133.55182778180745
124.73362888220122
118.15138677832044
113.36610702018736
109.98347055733313
107.66751530229492
106.1471087331408
105.21707205848979
104.73588748007406
104.6222159213477
104.85187630874005
105.45646423081506
106.524009917288
108.20136662247938
110.69730613164933
114.28470098410453
119.29987418860104
126.13711316273957
135.2367585059577
147.06613527970333
162.09378809338028
180.75908275171253
203.44009441586343
230.4245049278289
261.8870946604718
257.1048111597865
226.69054857965202
200.5202117053681
178.49883971267153
160.39402489032426
145.8624691534316
134.48363447086277
125.7966536707144
119.33531500761873
114.6574289288288
111.36682917513339
109.1270024611851
107.66751564417244
106.78476082237879
106.3393620301507
106.25234109166435
106.50183556640734
107.12155010981384
108.20136842007652
109.88979058920259
112.39718429449084
115.99824066388466
121.03168069543003
127.89527678172387
137.03451117391361
148.9242233522879
164.0436133989209
182.8464408540788
205.72960782896138
233.00384442678646
264.8706953289999
257.50039310618286
227.24848721996835
201.25646115680053
179.42695247807148
161.52249270800596
147.1930519826131
136.0107384943218
127.50784899130834
121.21252850925865
116.67888427249045
113.50907680488524
111.36682634701292
109.98347298492835
109.15821486744954
108.75501365662484
108.69830984699662
108.96945099360191
109.60499164709327
110.6973064676356
112.39718244436855
114.91733167434965
118.53523999001996
123.59338680505088
130.49485970785955
139.69276796287068
151.67262096134888
166.92811950037253
185.93174809974144
209.10351232496154
236.78092909817713
269.1943417692258
258.23007210370815
228.21716510062632
202.48863193491167
180.939998041513
163.32442936312663
149.28090656378944
138.37089075237066
130.11753599856624
124.04231123722555
119.69565214472561
116.67888074936057
114.65742758216189
113.36610291854309
112.60864983914028
112.25393675161231
112.23115391626561
112.52593399435415
113.1785631717108
114.28469998177117
115.99823775576426
118.5352402834871
122.1773242008807
127.27255344534139
134.23178396004624
143.51888493414893
155.6338749875335
171.089158617686
190.38037449209756
213.95429204211288
242.17730961189693
275.3078675343499
259.4427154144483
229.7808384877923
204.4344504997827
183.28634503763317
166.07443433490394
152.42193771984518
141.8761734585433
133.9491423101401
128.1553127978776
124.0423314593625
121.21253211302957
119.33532117793689
118.1513975616486
117.47129034063722
117.17068102247444
117.18505357111961
117.50554741314933
118.17719063295797
119.2998817745992
121.03169124023535
123.59339246921911
127.2725625459454
132.42525894075504
139.47322798210263
148.89487385098624
161.2090029390896
176.95107978352112
196.64353438832381
220.7620169726205
249.7010601341152
283.74248222791823
261.35231801675354
232.1945317745115
207.38671577793943
186.79154050270338
170.12461717853503
156.98815246297156
146.91208080122476
139.39630027106827
133.94913339011583
130.11754246035395
127.50785823915142
125.79666557574625
124.73364607435433
124.1387836933835
123.89673890907629
123.9509671135499
124.29943310184107
124.99304985065487
126.13711915200419
127.89528822260863
130.49486203783448
134.23178980842096
139.47322516089494
146.65556600003487
156.27602440783338
168.87643824190738
185.01907056824896
205.25515700236474
230.08847984430145
259.93694148482757
295.0958357588541
264.24581893748007
235.79021547670754
211.71691291068296
191.85877033381723
175.9014700919738
163.42125824162056
153.9286338294318
146.91207048795343
141.87616996176655
138.37090437688488
136.01075475248032
134.48362869860298
133.55183428850023
133.0477587472324
132.8673147348203
132.96364671103774
133.342927272129
134.06324655758957
135.23675884367674
137.0345188438744
139.6927677173901
143.51889024014156
148.89488429500022
156.27601841599449
166.18260928400417
179.18319052222623
195.86878688979144
216.81865019343195
242.55979881081345
273.5236168303794
310.00347129903986
268.4855163710718
240.97629390219225
217.87052646469942
198.96000253004775
183.89288528212785
172.216112017649
163.4212468707878
156.98814829838918
152.42193075940602
149.28090133498452
147.19305323924797
145.86246717740826
145.06802114972731
144.65752449002807
144.5403591354494
144.68103334107545
145.09536491218708
145.8501177818175
147.06612745440677
148.92422419741882
151.67262595495214
155.6338702722705
161.2089995489204
168.87644120038595
179.1831868085731
192.7264958295348
210.12524037344178
231.9817026005376
258.8360613359718
291.1175381919543
329.0970543724978
274.5052593703968
248.22903943846808
226.3529565292032
208.61587413662187
194.62309579224868
183.89289239563917
175.90146528078628
170.12458798716236
166.07440581893997
163.3244293933242
161.52249383639767
160.39402925349265
159.73838878146285
159.4216174087339
159.36857541290092
159.55672347929809
160.01305392860772
160.81479856447248
162.09378526855212
164.0436050959497
166.92810776973042
171.089154879308
176.95107352776495
185.01906576721274
195.86877543545737
210.1252322437776
228.43009738104243
251.3983593390162
279.5674144997939
313.34331868816355
352.9504680648417
282.79734241541894
258.07369547454084
237.703717203877
221.36281845089593
208.61593746286837
198.96001583711518
191.85879454490538
186.79155723333668
183.28636987426387
180.94005979316753
179.4269745599777
178.4988676194874
177.97906491884075
177.75422209272054
177.76639314821298
178.00750431223662
178.5174276895955
179.38606327380688
180.75910399053882
182.8464788279197
185.93177939298886
190.3804010685183
196.64356721672868
205.25517864188404
216.81866849331604
231.98172083333637
251.39839678184603
275.6801086612156
305.3395661537525
340.73428706991115
382.01771348436273
293.8917464583837
271.0575347353974
252.4569510380458
237.7036925292233
226.3529996667881
217.87055192099353
211.71694749433277
207.38674874390875
204.43444447576866
202.48866534766665
201.25649998983562
200.5202543990974
200.12996403732276
199.99468588639147
200.07509224861403
200.37910654125125
200.9614839886754
201.92748932305096
203.44011860848994
205.72963878215768
209.10353614076055
213.954304872004
220.7620434637341
230.08849368376622
242.5598234225085
258.836078262212
279.5674338488818
305.33956259849634
336.6131879965825
373.6681049560119
416.5660431909702
308.3368731432517
287.72460552361713
271.0575121744026
258.07368140646446
248.2290722073173
240.97633668369562
235.79020296698997
232.19453029431065
229.78084813595
228.21721760667427
227.248477264843
226.69054329502154
226.42194762020105
226.37536050182993
226.53130258467021
226.91538709664778
227.59967275978852
228.70800037910968
230.42451288647717
233.00386025730003
236.78093647972287
242.17730969476864
249.7010854808165
259.9369490507515
273.52362852823643
291.1175505830832
313.34333219692854
340.73428693937547
373.6680963214239
412.30253886172227
456.5990035207978
326.8629681194211
308.33684419442824
293.89173069001225
282.7973430630104
274.50525409990513
268.485519553656
264.24582159595434
261.35233322820227
259.44266632307335
258.23007098374524
257.50039631547406
257.10481799989793
256.95121010667134
256.9966326291652
257.2426886199548
257.73469173067434
258.5648895473222
259.8793002470389
261.8870848647743
264.8706934906786
269.19434258919057
275.3078576522289
283.74249009719136
295.09582969227324
310.0034622611102
329.0970472245896
352.95047311312453
382.0177005262042
416.56601862788744
456.59898661793704
501.39023095715487
