# vtk DataFile Version 2.0
Unstructured Grid Example
ASCII
DATASET UNSTRUCTURED_GRID

POINTS 961 float
0.150000006 -0.00839745998 0
0.146666661 -0.00839745998 0
0.143333331 -0.00839745998 0
0.140000001 -0.00839745998 0
0.13666667 -0.00839745998 0
0.13333334 -0.00839745998 0
0.129999995 -0.00839745998 0
0.126666665 -0.00839745998 0
0.123333335 -0.00839745998 0
0.119999997 -0.00839745998 0
0.116666667 -0.00839745998 0
0.113333337 -0.00839745998 0
0.109999999 -0.00839745998 0
0.106666669 -0.00839745998 0
0.103333332 -0.00839745998 0
0.100000001 -0.00839745998 0
0.0966666639 -0.00839745998 0
0.0933333337 -0.00839745998 0
0.0900000036 -0.00839745998 0
0.086666666 -0.00839745998 0
0.0833333358 -0.00839745998 0
0.0799999982 -0.00839745998 0
0.0766666681 -0.00839745998 0
0.0733333305 -0.00839745998 0
0.0700000003 -0.00839745998 0
0.0666666701 -0.00839745998 0
0.0633333325 -0.00839745998 0
0.0599999987 -0.00839745998 0
0.0566666685 -0.00839745998 0
0.0533333346 -0.00839745998 0
0.0500000007 -0.00839745998 0
0.148333326 -0.0112842107 0
0.144999996 -0.0112842107 0
0.141666666 -0.0112842107 0
0.138333336 -0.0112842107 0
0.135000005 -0.0112842107 0
0.13166666 -0.0112842107 0
0.12833333 -0.0112842107 0
0.125 -0.0112842107 0
0.12166667 -0.0112842107 0
0.118333332 -0.0112842107 0
0.115000002 -0.0112842107 0
0.111666664 -0.0112842107 0
0.108333334 -0.0112842107 0
0.104999997 -0.0112842107 0
0.101666667 -0.0112842107 0
0.0983333364 -0.0112842107 0
0.0949999988 -0.0112842107 0
0.0916666687 -0.0112842107 0
0.088333331 -0.0112842107 0
0.0850000009 -0.0112842107 0
0.0816666633 -0.0112842107 0
0.0783333331 -0.0112842107 0
0.075000003 -0.0112842107 0
0.0716666654 -0.0112842107 0
0.0683333352 -0.0112842107 0
0.0649999976 -0.0112842107 0
0.0616666675 -0.0112842107 0
0.0583333336 -0.0112842107 0
0.0549999997 -0.0112842107 0
0.0516666658 -0.0112842107 0
0.0483333319 -0.0112842107 0
0.146666661 -0.0141709624 0
0.143333331 -0.0141709624 0
0.140000001 -0.0141709624 0
0.13666667 -0.0141709624 0
0.13333334 -0.0141709624 0
0.129999995 -0.0141709624 0
0.126666665 -0.0141709624 0
0.123333335 -0.0141709624 0
0.119999997 -0.0141709624 0
0.116666667 -0.0141709624 0
0.113333337 -0.0141709624 0
0.109999999 -0.0141709624 0
0.106666669 -0.0141709624 0
0.103333332 -0.0141709624 0
0.100000001 -0.0141709624 0
0.0966666639 -0.0141709624 0
0.0933333337 -0.0141709624 0
0.0900000036 -0.0141709624 0
0.086666666 -0.0141709624 0
0.0833333358 -0.0141709624 0
0.0799999982 -0.0141709624 0
0.0766666681 -0.0141709624 0
0.0733333305 -0.0141709624 0
0.0700000003 -0.0141709624 0
0.0666666701 -0.0141709624 0
0.0633333325 -0.0141709624 0
0.0599999987 -0.0141709624 0
0.0566666685 -0.0141709624 0
0.0533333346 -0.0141709624 0
0.0500000007 -0.0141709624 0
0.0466666669 -0.0141709624 0
0.144999996 -0.0170577131 0
0.141666666 -0.0170577131 0
0.138333336 -0.0170577131 0
0.135000005 -0.0170577131 0
0.13166666 -0.0170577131 0
0.12833333 -0.0170577131 0
0.125 -0.0170577131 0
0.12166667 -0.0170577131 0
0.118333332 -0.0170577131 0
0.115000002 -0.0170577131 0
0.111666664 -0.0170577131 0
0.108333334 -0.0170577131 0
0.104999997 -0.0170577131 0
0.101666667 -0.0170577131 0
0.0983333364 -0.0170577131 0
0.0949999988 -0.0170577131 0
0.0916666687 -0.0170577131 0
0.088333331 -0.0170577131 0
0.0850000009 -0.0170577131 0
0.0816666633 -0.0170577131 0
0.0783333331 -0.0170577131 0
0.075000003 -0.0170577131 0
0.0716666654 -0.0170577131 0
0.0683333352 -0.0170577131 0
0.0649999976 -0.0170577131 0
0.0616666675 -0.0170577131 0
0.0583333336 -0.0170577131 0
0.0549999997 -0.0170577131 0
0.0516666658 -0.0170577131 0
0.0483333319 -0.0170577131 0
0.0450000018 -0.0170577131 0
0.143333331 -0.0199444648 0
0.140000001 -0.0199444648 0
0.13666667 -0.0199444648 0
0.13333334 -0.0199444648 0
0.129999995 -0.0199444648 0
0.126666665 -0.0199444648 0
0.123333335 -0.0199444648 0
0.119999997 -0.0199444648 0
0.116666667 -0.0199444648 0
0.113333337 -0.0199444648 0
0.109999999 -0.0199444648 0
0.106666669 -0.0199444648 0
0.103333332 -0.0199444648 0
0.100000001 -0.0199444648 0
0.0966666639 -0.0199444648 0
0.0933333337 -0.0199444648 0
0.0900000036 -0.0199444648 0
0.086666666 -0.0199444648 0
0.0833333358 -0.0199444648 0
0.0799999982 -0.0199444648 0
0.0766666681 -0.0199444648 0
0.0733333305 -0.0199444648 0
0.0700000003 -0.0199444648 0
0.0666666701 -0.0199444648 0
0.0633333325 -0.0199444648 0
0.0599999987 -0.0199444648 0
0.0566666685 -0.0199444648 0
0.0533333346 -0.0199444648 0
0.0500000007 -0.0199444648 0
0.0466666669 -0.0199444648 0
0.043333333 -0.0199444648 0
0.141666666 -0.0228312165 0
0.138333336 -0.0228312165 0
0.135000005 -0.0228312165 0
0.13166666 -0.0228312165 0
0.12833333 -0.0228312165 0
0.125 -0.0228312165 0
0.12166667 -0.0228312165 0
0.118333332 -0.0228312165 0
0.115000002 -0.0228312165 0
0.111666664 -0.0228312165 0
0.108333334 -0.0228312165 0
0.104999997 -0.0228312165 0
0.101666667 -0.0228312165 0
0.0983333364 -0.0228312165 0
0.0949999988 -0.0228312165 0
0.0916666687 -0.0228312165 0
0.088333331 -0.0228312165 0
0.0850000009 -0.0228312165 0
0.0816666633 -0.0228312165 0
0.0783333331 -0.0228312165 0
0.075000003 -0.0228312165 0
0.0716666654 -0.0228312165 0
0.0683333352 -0.0228312165 0
0.0649999976 -0.0228312165 0
0.0616666675 -0.0228312165 0
0.0583333336 -0.0228312165 0
0.0549999997 -0.0228312165 0
0.0516666658 -0.0228312165 0
0.0483333319 -0.0228312165 0
0.0450000018 -0.0228312165 0
0.0416666679 -0.0228312165 0
0.140000001 -0.0257179681 0
0.13666667 -0.0257179681 0
0.13333334 -0.0257179681 0
0.129999995 -0.0257179681 0
0.126666665 -0.0257179681 0
0.123333335 -0.0257179681 0
0.119999997 -0.0257179681 0
0.116666667 -0.0257179681 0
0.113333337 -0.0257179681 0
0.109999999 -0.0257179681 0
0.106666669 -0.0257179681 0
0.103333332 -0.0257179681 0
0.100000001 -0.0257179681 0
0.0966666639 -0.0257179681 0
0.0933333337 -0.0257179681 0
0.0900000036 -0.0257179681 0
0.086666666 -0.0257179681 0
0.0833333358 -0.0257179681 0
0.0799999982 -0.0257179681 0
0.0766666681 -0.0257179681 0
0.0733333305 -0.0257179681 0
0.0700000003 -0.0257179681 0
0.0666666701 -0.0257179681 0
0.0633333325 -0.0257179681 0
0.0599999987 -0.0257179681 0
0.0566666685 -0.0257179681 0
0.0533333346 -0.0257179681 0
0.0500000007 -0.0257179681 0
0.0466666669 -0.0257179681 0
0.043333333 -0.0257179681 0
0.0399999991 -0.0257179681 0
0.138333336 -0.0286047198 0
0.135000005 -0.0286047198 0
0.13166666 -0.0286047198 0
0.12833333 -0.0286047198 0
0.125 -0.0286047198 0
0.12166667 -0.0286047198 0
0.118333332 -0.0286047198 0
0.115000002 -0.0286047198 0
0.111666664 -0.0286047198 0
0.108333334 -0.0286047198 0
0.104999997 -0.0286047198 0
0.101666667 -0.0286047198 0
0.0983333364 -0.0286047198 0
0.0949999988 -0.0286047198 0
0.0916666687 -0.0286047198 0
0.088333331 -0.0286047198 0
0.0850000009 -0.0286047198 0
0.0816666633 -0.0286047198 0
0.0783333331 -0.0286047198 0
0.075000003 -0.0286047198 0
0.0716666654 -0.0286047198 0
0.0683333352 -0.0286047198 0
0.0649999976 -0.0286047198 0
0.0616666675 -0.0286047198 0
0.0583333336 -0.0286047198 0
0.0549999997 -0.0286047198 0
0.0516666658 -0.0286047198 0
0.0483333319 -0.0286047198 0
0.0450000018 -0.0286047198 0
0.0416666679 -0.0286047198 0
0.038333334 -0.0286047198 0
0.13666667 -0.0314914696 0
0.13333334 -0.0314914696 0
0.129999995 -0.0314914696 0
0.126666665 -0.0314914696 0
0.123333335 -0.0314914696 0
0.119999997 -0.0314914696 0
0.116666667 -0.0314914696 0
0.113333337 -0.0314914696 0
0.109999999 -0.0314914696 0
0.106666669 -0.0314914696 0
0.103333332 -0.0314914696 0
0.100000001 -0.0314914696 0
0.0966666639 -0.0314914696 0
0.0933333337 -0.0314914696 0
0.0900000036 -0.0314914696 0
0.086666666 -0.0314914696 0
0.0833333358 -0.0314914696 0
0.0799999982 -0.0314914696 0
0.0766666681 -0.0314914696 0
0.0733333305 -0.0314914696 0
0.0700000003 -0.0314914696 0
0.0666666701 -0.0314914696 0
0.0633333325 -0.0314914696 0
0.0599999987 -0.0314914696 0
0.0566666685 -0.0314914696 0
0.0533333346 -0.0314914696 0
0.0500000007 -0.0314914696 0
0.0466666669 -0.0314914696 0
0.043333333 -0.0314914696 0
0.0399999991 -0.0314914696 0
0.0366666652 -0.0314914696 0
0.135000005 -0.0343782231 0
0.13166666 -0.0343782231 0
0.12833333 -0.0343782231 0
0.125 -0.0343782231 0
0.12166667 -0.0343782231 0
0.118333332 -0.0343782231 0
0.115000002 -0.0343782231 0
0.111666664 -0.0343782231 0
0.108333334 -0.0343782231 0
0.104999997 -0.0343782231 0
0.101666667 -0.0343782231 0
0.0983333364 -0.0343782231 0
0.0949999988 -0.0343782231 0
0.0916666687 -0.0343782231 0
0.088333331 -0.0343782231 0
0.0850000009 -0.0343782231 0
0.0816666633 -0.0343782231 0
0.0783333331 -0.0343782231 0
0.075000003 -0.0343782231 0
0.0716666654 -0.0343782231 0
0.0683333352 -0.0343782231 0
0.0649999976 -0.0343782231 0
0.0616666675 -0.0343782231 0
0.0583333336 -0.0343782231 0
0.0549999997 -0.0343782231 0
0.0516666658 -0.0343782231 0
0.0483333319 -0.0343782231 0
0.0450000018 -0.0343782231 0
0.0416666679 -0.0343782231 0
0.038333334 -0.0343782231 0
0.0350000001 -0.0343782231 0
0.13333334 -0.0372649729 0
0.129999995 -0.0372649729 0
0.126666665 -0.0372649729 0
0.123333335 -0.0372649729 0
0.119999997 -0.0372649729 0
0.116666667 -0.0372649729 0
0.113333337 -0.0372649729 0
0.109999999 -0.0372649729 0
0.106666669 -0.0372649729 0
0.103333332 -0.0372649729 0
0.100000001 -0.0372649729 0
0.0966666639 -0.0372649729 0
0.0933333337 -0.0372649729 0
0.0900000036 -0.0372649729 0
0.086666666 -0.0372649729 0
0.0833333358 -0.0372649729 0
0.0799999982 -0.0372649729 0
0.0766666681 -0.0372649729 0
0.0733333305 -0.0372649729 0
0.0700000003 -0.0372649729 0
0.0666666701 -0.0372649729 0
0.0633333325 -0.0372649729 0
0.0599999987 -0.0372649729 0
0.0566666685 -0.0372649729 0
0.0533333346 -0.0372649729 0
0.0500000007 -0.0372649729 0
0.0466666669 -0.0372649729 0
0.043333333 -0.0372649729 0
0.0399999991 -0.0372649729 0
0.0366666652 -0.0372649729 0
0.0333333351 -0.0372649729 0
0.13166666 -0.0401517227 0
0.12833333 -0.0401517227 0
0.125 -0.0401517227 0
0.12166667 -0.0401517227 0
0.118333332 -0.0401517227 0
0.115000002 -0.0401517227 0
0.111666664 -0.0401517227 0
[...]
POINT_DATA 961
SCALARS Temp float 1
LOOKUP_TABLE default
456.89490838136794
410.09927720406034
369.4046013727056
335.5880019348471
308.41792277117605
287.29930468768885
271.4167767984469
259.85785893344314
251.71481507546497
246.1595001374539
242.48738508399876
240.13401374681408
238.6707541155455
237.78766686533513
237.27071661188137
236.97881912212728
236.82405304037076
236.75680785577245
236.7565776056065
236.82863252448368
237.00674700125572
237.3620881586663
238.0180397716996
239.16980803341923
241.10590696526037
244.2266607508732
249.05294945518037
256.21842595215105
266.4421350726176
280.4899640330588
299.34251727936925
410.09929103272157
364.29336373235697
325.67607308865973
294.0935727644455
269.0953370869611
249.9453847174617
235.7471881592036
225.55689281612564
218.47474362925624
213.70640224737758
210.59440523841977
208.62440737651448
207.41408122058687
206.6923116468338
206.2754307444918
206.04496532654252
205.92959173051315
205.89254360160172
205.9249319072828
206.0451921864675
206.30481538625273
206.80036606232275
207.69118274571522
209.22078836007194
211.73809092922093
215.7123545979754
221.7344993138865
230.4985251613124
242.76066601536164
259.2871219396278
280.4899838206348
369.4045543188811
325.676050349106
289.24644726329194
259.8141918321005
236.7729039784966
219.30029178121038
206.46649049666172
197.33437178082542
191.03729527191925
186.82764186615216
184.09782842167144
182.3797108857762
181.3297202923184
180.70696685278213
180.35011674561864
180.15674876821367
180.0673711382006
180.05505544092043
180.12110873130868
180.29702376943155
180.6528379058699
181.31169061148168
182.46944461214434
184.41653416757336
187.55714359181673
192.41873114848903
199.64419595347994
209.9602265865328
224.1167868101735
242.7606568289576
266.4421461406338
335.5879412885694
294.093538464659
259.81419101213805
232.33257746682278
210.96315503870193
194.8510623078327
183.07259242986868
174.7234715913943
168.98346884551864
165.15471434053165
162.6757050717504
161.116993076759
160.16510874053878
159.60130201235341
159.27989889120371
159.10957749678136
159.03937808414807
159.0503412617555
159.153238880516
159.39265654040005
159.8574818828452
160.6972741068957
162.14274093737046
164.52670090774606
168.29978153726526
174.03328911105893
182.40172283725747
194.1384912457172
209.96024315214578
230.4985384231605
256.21841743964546
308.41786392385086
269.0953034087634
236.77288420805496
210.9632333030331
190.9525624697207
175.8939284466824
164.8967773373409
157.10329193260998
151.7430116976792
148.1640687814554
145.84360821304574
144.38222793155637
143.4884502276809
142.95892245744156
142.65856661888648
142.50368516908966
142.44970541600756
142.48451245756846
142.62788475554248
142.93728870988974
143.5199235830155
144.55010451734688
146.28959957330719
149.10665823315483
153.48737141820587
160.03185331452536
169.42836817621253
182.40171555599886
199.64419084550534
221.73449804836028
249.0529549862761
287.2992433778647
249.94542660222785
219.30034672637547
194.85102832933964
175.89391481953427
161.61595092925847
151.17360443504182
143.75896727806696
138.64770844272323
135.22660604364668
133.00285156877445
131.59893648128931
130.73862607964398
130.22883450539413
129.94150393085948
129.79825621795842
129.7595541973778
129.81939495381033
130.00607845210777
130.3892643578982
131.09299354917258
132.31334314572942
134.33785591247243
137.56200964536657
142.49617485338942
149.75618154897577
160.03184957662015
174.03329057576065
192.4187379770855
215.71233259429013
244.22665608422255
271.41678892220796
235.74721484105623
206.46654176150838
183.07255207938306
164.89676017425305
151.173599431248
141.10976659662282
133.94372932982267
128.9898513079061
125.66499257247392
123.49824713633295
122.12724695400284
121.2858357203161
120.78756624019708
120.50901541376291
120.37565191058536
120.3520997693842
120.43786344675424
120.6690771399978
121.1263893375388
121.94842454894312
123.3491398662991
125.63589586606292
129.22323680779184
134.6360930249324
142.49617036453708
153.48736225366508
168.29976844820047
187.55714310344047
211.73808929686686
241.10591537618444
259.85787564779685
225.55692178941578
197.3343104744957
174.72343434192769
157.10329300465858
143.75898123731398
133.94372562164946
126.93490433524617
122.07702027450172
118.80889952453082
116.67472201529459
115.32211555096684
114.49133318509097
114.00014215004826
113.72822453695872
113.60395911496445
113.59549716932116
113.70722715357692
113.98218155295721
114.51037246626029
115.44227347765684
117.00553270169708
119.52153290362743
123.41677034659178
129.22323404773013
137.56200551631193
149.10666087675295
164.52670249426828
184.41651895201886
209.22076872375834
239.16979756209523
251.71482360922002
218.47477849204165
191.03725101901932
168.98345103261326
151.74301514209427
138.64769584850634
128.98984751145076
122.07703122199167
117.27578017430524
114.04006604215816
111.92400608348001
110.58153379510298
109.75687048244713
109.27044741858153
109.00408921857668
108.8884584688321
108.89469228977673
109.03136630226548
109.3472861463144
109.93997555086501
110.96891012833704
112.67145466460815
115.37800969573823
119.5215355953589
125.63589733322642
134.33785572439376
146.2895981752315
162.14273647420856
182.46944813977063
207.6911904155931
238.01805886644954
246.1595408095778
213.70633755080684
186.8276171138175
165.15470949716232
148.16408160295632
135.22660485165474
125.66499976965353
118.80889636234242
114.04006359317498
110.82237535280818
108.71623555162641
107.37940440642691
106.55851498811838
106.07569715791689
105.81431075559797
105.70683833899143
105.72688931417596
105.8864704790833
106.23895428000266
106.8875202147875
107.99802021710954
109.81415236851278
112.67145259717472
117.00553241855208
123.34913931669514
132.31334203417381
144.55010343498373
160.69725538892396
181.31167538662885
206.80034899131786
237.3620798981946
242.48744751409868
210.59435384036644
184.09781334649253
162.6757118356393
145.8435955362607
133.00285266224253
123.49825633028989
116.67472271994107
111.92400899142596
108.71623521542558
106.6155919669784
105.2821080788751
104.46386664736671
103.98409621868434
103.72728690285834
103.62735912739596
103.65989795648937
103.83958152003493
104.22318564254707
104.91787256425131
106.09367635654343
107.99802307760227
110.96891079565458
115.44227161558523
121.9484216308429
131.09299236497748
143.51992063497244
159.85747983930827
180.65284340030405
206.3048237876149
237.00673392790833
240.13395233627872
208.62437376457183
182.3797080944416
161.1170060029299
144.38221683369497
131.59894195295456
122.12724094202187
115.32211684655894
110.58152867513832
107.37940422904639
105.28211052609275
103.95098578210688
103.13497423070199
102.65803396114379
102.40549086201256
102.31237124250646
102.35577045806677
102.55233534909057
102.96122617308448
103.6922235230966
104.91787484652694
106.88752178415568
109.93997456224652
114.51037682218448
121.12639489067439
130.38927274952792
142.93728312592938
159.39265000679154
180.29702536083596
206.04519440839525
236.82864650167303
238.6707233159194
207.41407310732515
181.32973689730724
160.16509297478316
143.48845226177949
130.7386408083982
121.28583424452638
114.49133848691848
109.75686825501639
106.55851692645889
104.46386528209902
103.13497337738202
102.32127428041889
101.84721213221044
101.59871858123847
101.51164478388966
101.56418740389267
101.7743693643219
102.20292146232033
102.96122410560916
104.22318500712437
106.23895650688132
109.34728247103085
113.98218023385154
120.66907506768912
130.00607560424766
142.62788288612487
159.1532372105168
180.1211158092054
205.92490900031643
236.75658165493067
237.78764149905098
206.69230905841678
180.7069901875113
159.60128820626693
142.95892694180276
130.22882444769022
120.7875671833869
114.00013764605029
109.270445912424
106.07570000131628
103.98409463277986
102.65803405697766
101.84721191387978
101.37638346491215
101.13190436397412
101.05022504059207
101.11031714441803
101.33112646028567
101.77436903232115
102.55233593325167
103.8395814041229
105.88647188023143
109.03136596332085
113.70723057023001
120.43786900663056
129.81939090434923
142.48450758408347
159.05033581836014
180.05505706621085
205.89254737478245
236.7568069044694
237.2707141617667
206.27544912429767
180.3501014662396
159.27989934904508
142.65858464180891
129.94150196325901
120.5090236234245
113.72822362376614
109.00408912749782
105.81431014808919
103.7272869510584
102.40549147520804
101.59871833761618
101.13190467706096
100.89171034007553
100.81502443977679
100.88137166607054
101.11031691417647
101.56418684511158
102.35576977511816
103.6598980148456
105.7268883600217
108.89468876210272
113.59549600455766
120.35209777423097
129.75955294070505
142.44970445608791
159.03937771699944
180.0673540925517
205.9295878316735
236.82404453515642
236.97881933037277
206.0449875334581
180.1567358968202
159.10958146414177
142.50367128082274
129.79825626940075
120.37564449784955
113.60395975746027
108.88846034756241
105.70683785260704
103.62735949036012
102.31236978141544
101.51164491460051
101.05022461619882
100.81502445387844
100.74330087685595
100.81502457822711
101.05022479482045
101.51164546321458
102.31237043830939
103.62735877755456
105.70683983043766
108.88845848404002
113.60396310467375
120.37564869339427
129.7982526287025
142.50368184969048
159.10957279231826
180.15675329429374
206.0449551383961
236.97882084967745
236.82407542518155
205.9295684568161
180.06737845483414
159.03939914370696
142.44970176546587
129.75956454843853
120.35209835004211
113.59550083286871
108.89468881227545
105.72689093280731
103.65989998391005
102.35576982247409
101.56418829022739
101.1103170743249
100.88137179660872
100.81502467127588
100.89171053786069
101.13190415115022
101.59871860186568
102.4054904941248
103.72728552237793
105.81431027321558
109.00408589853794
113.72822317340086
120.50901488581877
129.94150365657913
142.658567242121
159.27987865038062
180.35011379752967
206.2754138074826
237.27070890507835
236.75683956013884
205.89252621026188
180.05506721232265
159.0503212730534
142.48451170016799
129.8193845570824
120.43786394450625
113.70723301710414
109.03136291143412
105.88647291116862
103.83958034002137
102.55233504769227
101.77436870429202
101.33112621380765
101.11031735964191
101.05022508992568
101.13190443842912
101.37638378049095
101.84721228583965
102.6580335658619
103.98409584311749
106.07569860889842
109.27044801039165
114.00014024663025
120.7875640460811
130.2288315877351
142.9589188961477
159.60129982853144
180.70695833743252
206.69230331819796
237.78766805809872
236.75654465755605
205.92492159388314
180.1211267622924
159.15322096842235
142.62788812778635
130.00606889130296
120.66907643907581
113.98217643900617
109.34728364489445
106.23895768274241
104.22318383176534
102.96122558052086
102.20292110187586
101.77436910801757
101.56418736446193
101.51164477024834
101.59871834277827
101.84721240085793
102.32127391970016
103.1349729792013
104.4638661901218
106.55851613291354
109.75687004545553
114.49133537891832
121.28583995554422
130.73863363576797
143.48844402933014
160.16511236774488
181.32971934347606
207.41408139739067
238.6707649350042
236.8286252780408
206.04520556468776
180.2970056989199
159.39265431253904
142.93727407616848
130.38926557231667
121.12639811526248
114.51037242199969
109.93997607239605
106.88752019649182
104.91787351711675
103.69222299262896
102.9612257454874
102.55233581802959
102.35577047561509
102.31237124466115
102.40549102351507
102.65803414339948
103.13497390134334
103.9509864921985
105.28210953304564
107.37940552278475
110.58153023129925
115.32211436814862
122.12724573940547
131.59893532973146
144.3822253786253
161.116979753383
182.37970386509156
208.6244000447017
240.134013591722
237.00674373117755
206.3048338825199
180.6528216437743
159.857485611696
143.5199114681389
131.09299413887064
121.94841631448409
115.44227333228294
110.96891255578434
107.99802136185032
106.09367865515755
104.91787206638853
104.22318525517437
103.83958139739447
103.65989781946053
103.62735909537928
103.72728708910574
103.98409597700822
104.46386642164532
105.28210861056024
106.61559138412612
108.71623632256028
111.9240067247132
116.67472667669837
123.49825091367255
133.00284663928343
145.84361129838405
162.67569987892523
184.09782620977828
210.59440435822998
242.48738111904748
237.362086826756
206.8003221860381
181.31167982275215
160.697243557536
144.55009407963064
132.3133463848679
123.34913344711597
117.0055346547701
112.6714504301053
109.81415053041104
107.99801944676268
106.88751954735883
106.23895508111654
105.88647052811218
105.72688927920454
105.70683840839193
105.81431081620858
106.075696958296
106.5585154054947
107.37940376011191
108.71623641512161
110.822376325974
114.04006192170495
118.80889987306072
125.66499522093584
135.22661229093595
148.16406290285883
165.1547107254803
186.827649060755
213.7064130428553
246.15951571455358
238.01808767011926
207.6911832176265
182.46947176871606
162.142739106082
146.28961249261488
134.3378587233696
125.63590824952713
119.52154545347717
115.37801383153031
112.67146395381997
110.96891506078234
109.93998033048706
109.34729109152343
109.03137107289915
108.89469743376004
108.88846359426589
109.00409392034908
109.27045212208932
109.7568754146414
110.58153774863995
111.92401076614806
114.04006794726364
117.27578561586282
122.07702901843338
128.98984387052985
138.64770739056317
151.74300430951698
168.9834599524518
191.03729246257438
218.4747125641563
251.7147961906881
239.16979164346202
209.22079577140786
184.4165227407833
164.52670653991245
149.1066799257088
137.56200976797825
129.22324745814834
123.41677682800663
119.52153905971927
117.0055396997231
115.44228023198077
114.51038120452472
113.98218911529204
113.70723445066481
113.59550446796557
113.60396631664938
113.72823160359522
114.00014946251088
114.49133970613676
115.32212285618687
116.67472889703893
118.80890422716361
122.07702783977673
126.93490523155818
133.94373425494624
143.75896846797582
157.10329438069368
174.72345911690306
197.33436813088605
225.55688573110348
259.85785962371574
241.10590157311324
211.73810929280089
187.55713959589534
168.29978067966556
153.4873615838885
142.4961807743858
134.6361028971876
129.22323970963296
125.63590604173622
123.34914455777617
121.94842912703318
121.1263941736608
120.66908173986114
120.437868813385
120.35210505250203
120.37565680208502
120.5090205077788
120.7875714323277
121.28584035423354
122.12725222949206
123.49825084899005
125.6649989733464
128.98985274006444
133.94373053571385
141.10977966788369
151.17359597952597
164.8967729360003
183.0725912042047
206.46648580254754
235.74718744788473
271.4167909360647
244.22666448252016
215.71231744395143
192.41872581704172
174.03329854455797
160.03184162028316
149.75618618047108
142.49617187969272
137.56200700462423
134.33785472398506
132.31334192177968
131.0929952550887
130.38926472322632
130.00607848876606
129.8193949886261
129.75955414087454
129.79825626250357
129.94150415426415
130.2288343877054
130.73862674041445
131.59893693441666
133.00285109255861
135.2266080824365
138.64770641335187
143.7589717206474
151.17359338940972
161.61595159491216
175.89393458919042
194.85107433085457
219.30030796301637
249.9453975509581
287.2992433244686
249.05295169467192
221.7344716200953
199.6441846246574
182.40169567166052
169.42836253482972
160.0318478781918
153.48735808278087
149.10665428548293
146.2895892784846
144.55009421518753
143.51991364698216
142.9372784727527
142.62787567575094
142.48450327830855
142.4496958194801
142.5036759603603
142.65855741223294
142.95891294130362
143.48844131563874
144.38221827995082
145.8436006623561
148.16405804394833
151.74300155774998
157.10329095370878
164.8967635786364
175.89392737486088
190.95258170228433
210.96316717264017
236.77283638593698
269.0952721055434
308.4178565120625
256.2184313060581
230.49855458483466
209.96028089309362
194.13850987136595
182.40175459277052
174.03331124788542
168.29980350434948
164.5267240453034
162.14276374651038
160.69730037148062
159.85750652533227
159.39268067273954
159.15326291541245
159.05036513772808
159.03940218825957
159.10960163103366
159.27992279706504
159.6013264646801
160.1651326683982
161.11701624258762
162.67572960822494
165.1547351411205
168.98349327787406
174.72348216733994
183.07260968233211
194.85109136948148
210.9632005033624
232.33254025887285
259.8141502800195
294.09350769039617
335.5879444710318
266.44215768369406
242.76069044566353
224.11680338426999
209.9602570026579
199.64422538798271
192.41875095145264
187.55717334063212
184.41655659994956
182.4694668277081
181.31171305668565
180.65285981696226
180.297047012469
180.1211318424584
180.05507808047926
180.0673942410792
180.1567717052154
180.35013933474525
180.7069897452674
181.32974252338678
182.37973422416437
184.09784869922876
186.82766194717925
191.03732098125855
197.3343847056568
206.46651065678066
219.30032413742384
236.77285461774233
259.8141486183647
289.24640455120056
325.67601410768305
369.4045487595871
280.4899869076585
259.2871452662518
242.76066846853098
230.4985412260682
221.7345054033812
215.71236067999197
211.73809833807834
209.22079558600836
207.69119400302424
206.80037557544392
206.30482421542433
206.04520094519222
205.92494052256825
205.8925526327124
205.92960072104395
206.04497421476276
206.27544016387324
206.69232051787887
207.4140897612911
208.62441708203832
210.59441201129118
213.70641192139
218.47474179346426
225.55689622132243
235.7472004029276
249.9454093326606
269.095284182675
294.09350988095787
325.6760061043672
364.293301565087
410.0991937880936
299.3425335215069
280.4899582141305
266.44214261107504
256.2184325357138
249.0529458016093
244.22666743624865
241.1059060037376
239.16980783115213
238.018039729379
237.36208672878792
237.00674728973289
236.82863255472887
236.75657757030385
236.75680813467957
236.8240531272599
236.97881910133182
237.27071635788766
237.7876666804795
238.6707546630078
240.13401173157663
242.48738303505476
246.1595031676956
251.7148074289151
259.8578567146601
271.4167832735878
287.29923691240424
308.41785978043316
335.5879327043522
369.40452422666266
410.09917631201984
456.89450526646357
