# vtk DataFile Version 2.0
Unstructured Grid Example
ASCII
DATASET UNSTRUCTURED_GRID

POINTS 961 float
0.150000006 -0.00839745998 0
0.146666661 -0.00839745998 0
0.143333331 -0.00839745998 0
0.140000001 -0.00839745998 0
0.13666667 -0.00839745998 0
0.13333334 -0.00839745998 0
0.129999995 -0.00839745998 0
0.126666665 -0.00839745998 0
0.123333335 -0.00839745998 0
0.119999997 -0.00839745998 0
0.116666667 -0.00839745998 0
0.113333337 -0.00839745998 0
0.109999999 -0.00839745998 0
0.106666669 -0.00839745998 0
0.103333332 -0.00839745998 0
0.100000001 -0.00839745998 0
0.0966666639 -0.00839745998 0
0.0933333337 -0.00839745998 0
0.0900000036 -0.00839745998 0
0.086666666 -0.00839745998 0
0.0833333358 -0.00839745998 0
0.0799999982 -0.00839745998 0
0.0766666681 -0.00839745998 0
0.0733333305 -0.00839745998 0
0.0700000003 -0.00839745998 0
0.0666666701 -0.00839745998 0
0.0633333325 -0.00839745998 0
0.0599999987 -0.00839745998 0
0.0566666685 -0.00839745998 0
0.0533333346 -0.00839745998 0
0.0500000007 -0.00839745998 0
0.148333326 -0.0112842107 0
0.144999996 -0.0112842107 0
0.141666666 -0.0112842107 0
0.138333336 -0.0112842107 0
0.135000005 -0.0112842107 0
0.13166666 -0.0112842107 0
0.12833333 -0.0112842107 0
0.125 -0.0112842107 0
0.12166667 -0.0112842107 0
0.118333332 -0.0112842107 0
0.115000002 -0.0112842107 0
0.111666664 -0.0112842107 0
0.108333334 -0.0112842107 0
0.104999997 -0.0112842107 0
0.101666667 -0.0112842107 0
0.0983333364 -0.0112842107 0
0.0949999988 -0.0112842107 0
0.0916666687 -0.0112842107 0
0.088333331 -0.0112842107 0
0.0850000009 -0.0112842107 0
0.0816666633 -0.0112842107 0
0.0783333331 -0.0112842107 0
0.075000003 -0.0112842107 0
0.0716666654 -0.0112842107 0
0.0683333352 -0.0112842107 0
0.0649999976 -0.0112842107 0
0.0616666675 -0.0112842107 0
0.0583333336 -0.0112842107 0
0.0549999997 -0.0112842107 0
0.0516666658 -0.0112842107 0
0.0483333319 -0.0112842107 0
0.146666661 -0.0141709624 0
0.143333331 -0.0141709624 0
0.140000001 -0.0141709624 0
0.13666667 -0.0141709624 0
0.13333334 -0.0141709624 0
0.129999995 -0.0141709624 0
0.126666665 -0.0141709624 0
0.123333335 -0.0141709624 0
0.119999997 -0.0141709624 0
0.116666667 -0.0141709624 0
0.113333337 -0.0141709624 0
0.109999999 -0.0141709624 0
0.106666669 -0.0141709624 0
0.103333332 -0.0141709624 0
0.100000001 -0.0141709624 0
0.0966666639 -0.0141709624 0
0.0933333337 -0.0141709624 0
0.0900000036 -0.0141709624 0
0.086666666 -0.0141709624 0
0.0833333358 -0.0141709624 0
0.0799999982 -0.0141709624 0
0.0766666681 -0.0141709624 0
0.0733333305 -0.0141709624 0
0.0700000003 -0.0141709624 0
0.0666666701 -0.0141709624 0
0.0633333325 -0.0141709624 0
0.0599999987 -0.0141709624 0
0.0566666685 -0.0141709624 0
0.0533333346 -0.0141709624 0
0.0500000007 -0.0141709624 0
0.0466666669 -0.0141709624 0
0.144999996 -0.0170577131 0
0.141666666 -0.0170577131 0
0.138333336 -0.0170577131 0
0.135000005 -0.0170577131 0
0.13166666 -0.0170577131 0
0.12833333 -0.0170577131 0
0.125 -0.0170577131 0
0.12166667 -0.0170577131 0
0.118333332 -0.0170577131 0
0.115000002 -0.0170577131 0
0.111666664 -0.0170577131 0
0.108333334 -0.0170577131 0
0.104999997 -0.0170577131 0
0.101666667 -0.0170577131 0
0.0983333364 -0.0170577131 0
0.0949999988 -0.0170577131 0
0.0916666687 -0.0170577131 0
0.088333331 -0.0170577131 0
0.0850000009 -0.0170577131 0
0.0816666633 -0.0170577131 0
0.0783333331 -0.0170577131 0
0.075000003 -0.0170577131 0
0.0716666654 -0.0170577131 0
0.0683333352 -0.0170577131 0
0.0649999976 -0.0170577131 0
0.0616666675 -0.0170577131 0
0.0583333336 -0.0170577131 0
0.0549999997 -0.0170577131 0
0.0516666658 -0.0170577131 0
0.0483333319 -0.0170577131 0
0.0450000018 -0.0170577131 0
0.143333331 -0.0199444648 0
0.140000001 -0.0199444648 0
0.13666667 -0.0199444648 0
0.13333334 -0.0199444648 0
0.129999995 -0.0199444648 0
0.126666665 -0.0199444648 0
0.123333335 -0.0199444648 0
0.119999997 -0.0199444648 0
0.116666667 -0.0199444648 0
0.113333337 -0.0199444648 0
0.109999999 -0.0199444648 0
0.106666669 -0.0199444648 0
0.103333332 -0.0199444648 0
0.100000001 -0.0199444648 0
0.0966666639 -0.0199444648 0
0.0933333337 -0.0199444648 0
0.0900000036 -0.0199444648 0
0.086666666 -0.0199444648 0
0.0833333358 -0.0199444648 0
0.0799999982 -0.0199444648 0
0.0766666681 -0.0199444648 0
0.0733333305 -0.0199444648 0
0.0700000003 -0.0199444648 0
0.0666666701 -0.0199444648 0
0.0633333325 -0.0199444648 0
0.0599999987 -0.0199444648 0
0.0566666685 -0.0199444648 0
0.0533333346 -0.0199444648 0
0.0500000007 -0.0199444648 0
0.0466666669 -0.0199444648 0
0.043333333 -0.0199444648 0
0.141666666 -0.0228312165 0
0.138333336 -0.0228312165 0
0.135000005 -0.0228312165 0
0.13166666 -0.0228312165 0
0.12833333 -0.0228312165 0
0.125 -0.0228312165 0
0.12166667 -0.0228312165 0
0.118333332 -0.0228312165 0
0.115000002 -0.0228312165 0
0.111666664 -0.0228312165 0
0.108333334 -0.0228312165 0
0.104999997 -0.0228312165 0
0.101666667 -0.0228312165 0
0.0983333364 -0.0228312165 0
0.0949999988 -0.0228312165 0
0.0916666687 -0.0228312165 0
0.088333331 -0.0228312165 0
0.0850000009 -0.0228312165 0
0.0816666633 -0.0228312165 0
0.0783333331 -0.0228312165 0
0.075000003 -0.0228312165 0
0.0716666654 -0.0228312165 0
0.0683333352 -0.0228312165 0
0.0649999976 -0.0228312165 0
0.0616666675 -0.0228312165 0
0.0583333336 -0.0228312165 0
0.0549999997 -0.0228312165 0
0.0516666658 -0.0228312165 0
0.0483333319 -0.0228312165 0
0.0450000018 -0.0228312165 0
0.0416666679 -0.0228312165 0
0.140000001 -0.0257179681 0
0.13666667 -0.0257179681 0
0.13333334 -0.0257179681 0
0.129999995 -0.0257179681 0
0.126666665 -0.0257179681 0
0.123333335 -0.0257179681 0
0.119999997 -0.0257179681 0
0.116666667 -0.0257179681 0
0.113333337 -0.0257179681 0
0.109999999 -0.0257179681 0
0.106666669 -0.0257179681 0
0.103333332 -0.0257179681 0
0.100000001 -0.0257179681 0
0.0966666639 -0.0257179681 0
0.0933333337 -0.0257179681 0
0.0900000036 -0.0257179681 0
0.086666666 -0.0257179681 0
0.0833333358 -0.0257179681 0
0.0799999982 -0.0257179681 0
0.0766666681 -0.0257179681 0
0.0733333305 -0.0257179681 0
0.0700000003 -0.0257179681 0
0.0666666701 -0.0257179681 0
0.0633333325 -0.0257179681 0
0.0599999987 -0.0257179681 0
0.0566666685 -0.0257179681 0
0.0533333346 -0.0257179681 0
0.0500000007 -0.0257179681 0
0.0466666669 -0.0257179681 0
0.043333333 -0.0257179681 0
0.0399999991 -0.0257179681 0
0.138333336 -0.0286047198 0
0.135000005 -0.0286047198 0
0.13166666 -0.0286047198 0
0.12833333 -0.0286047198 0
0.125 -0.0286047198 0
0.12166667 -0.0286047198 0
0.118333332 -0.0286047198 0
0.115000002 -0.0286047198 0
0.111666664 -0.0286047198 0
0.108333334 -0.0286047198 0
0.104999997 -0.0286047198 0
0.101666667 -0.0286047198 0
0.0983333364 -0.0286047198 0
0.0949999988 -0.0286047198 0
0.0916666687 -0.0286047198 0
0.088333331 -0.0286047198 0
0.0850000009 -0.0286047198 0
0.0816666633 -0.0286047198 0
0.0783333331 -0.0286047198 0
0.075000003 -0.0286047198 0
0.0716666654 -0.0286047198 0
0.0683333352 -0.0286047198 0
0.0649999976 -0.0286047198 0
0.0616666675 -0.0286047198 0
0.0583333336 -0.0286047198 0
0.0549999997 -0.0286047198 0
0.0516666658 -0.0286047198 0
0.0483333319 -0.0286047198 0
0.0450000018 -0.0286047198 0
0.0416666679 -0.0286047198 0
0.038333334 -0.0286047198 0
0.13666667 -0.0314914696 0
0.13333334 -0.0314914696 0
0.129999995 -0.0314914696 0
0.126666665 -0.0314914696 0
0.123333335 -0.0314914696 0
0.119999997 -0.0314914696 0
0.116666667 -0.0314914696 0
0.113333337 -0.0314914696 0
0.109999999 -0.0314914696 0
0.106666669 -0.0314914696 0
0.103333332 -0.0314914696 0
0.100000001 -0.0314914696 0
0.0966666639 -0.0314914696 0
0.0933333337 -0.0314914696 0
0.0900000036 -0.0314914696 0
0.086666666 -0.0314914696 0
0.0833333358 -0.0314914696 0
0.0799999982 -0.0314914696 0
0.0766666681 -0.0314914696 0
0.0733333305 -0.0314914696 0
0.0700000003 -0.0314914696 0
0.0666666701 -0.0314914696 0
0.0633333325 -0.0314914696 0
0.0599999987 -0.0314914696 0
0.0566666685 -0.0314914696 0
0.0533333346 -0.0314914696 0
0.0500000007 -0.0314914696 0
0.0466666669 -0.0314914696 0
0.043333333 -0.0314914696 0
0.0399999991 -0.0314914696 0
0.0366666652 -0.0314914696 0
0.135000005 -0.0343782231 0
0.13166666 -0.0343782231 0
0.12833333 -0.0343782231 0
0.125 -0.0343782231 0
0.12166667 -0.0343782231 0
0.118333332 -0.0343782231 0
0.115000002 -0.0343782231 0
0.111666664 -0.0343782231 0
0.108333334 -0.0343782231 0
0.104999997 -0.0343782231 0
0.101666667 -0.0343782231 0
0.0983333364 -0.0343782231 0
0.0949999988 -0.0343782231 0
0.0916666687 -0.0343782231 0
0.088333331 -0.0343782231 0
0.0850000009 -0.0343782231 0
0.0816666633 -0.0343782231 0
0.0783333331 -0.0343782231 0
0.075000003 -0.0343782231 0
0.0716666654 -0.0343782231 0
0.0683333352 -0.0343782231 0
0.0649999976 -0.0343782231 0
0.0616666675 -0.0343782231 0
0.0583333336 -0.0343782231 0
0.0549999997 -0.0343782231 0
0.0516666658 -0.0343782231 0
0.0483333319 -0.0343782231 0
0.0450000018 -0.0343782231 0
0.0416666679 -0.0343782231 0
0.038333334 -0.0343782231 0
0.0350000001 -0.0343782231 0
0.13333334 -0.0372649729 0
0.129999995 -0.0372649729 0
0.126666665 -0.0372649729 0
0.123333335 -0.0372649729 0
0.119999997 -0.0372649729 0
0.116666667 -0.0372649729 0
0.113333337 -0.0372649729 0
0.109999999 -0.0372649729 0
0.106666669 -0.0372649729 0
0.103333332 -0.0372649729 0
0.100000001 -0.0372649729 0
0.0966666639 -0.0372649729 0
0.0933333337 -0.0372649729 0
0.0900000036 -0.0372649729 0
0.086666666 -0.0372649729 0
0.0833333358 -0.0372649729 0
0.0799999982 -0.0372649729 0
0.0766666681 -0.0372649729 0
0.0733333305 -0.0372649729 0
0.0700000003 -0.0372649729 0
0.0666666701 -0.0372649729 0
0.0633333325 -0.0372649729 0
0.0599999987 -0.0372649729 0
0.0566666685 -0.0372649729 0
0.0533333346 -0.0372649729 0
0.0500000007 -0.0372649729 0
0.0466666669 -0.0372649729 0
0.043333333 -0.0372649729 0
0.0399999991 -0.0372649729 0
0.0366666652 -0.0372649729 0
0.0333333351 -0.0372649729 0
0.13166666 -0.0401517227 0
0.12833333 -0.0401517227 0
0.125 -0.0401517227 0
0.12166667 -0.0401517227 0
0.118333332 -0.0401517227 0
0.115000002 -0.0401517227 0
0.111666664 -0.0401517227 0
[...]
POINT_DATA 961
SCALARS Temp float 1
LOOKUP_TABLE default
407.0991934374427
358.48652121428773
317.9390777768906
286.16994040008086
262.4334454528032
245.50464412960878
233.97144917219333
226.45883942850978
221.77395920344972
218.97284831332854
217.36431077648902
216.4755017198911
216.00202862147788
215.75841907099073
215.6371912063605
215.57893586442287
215.55244262030413
215.54267208907547
215.54453671921547
215.56122037905953
215.6069983506042
215.71575403028828
215.95753350011583
216.4657877016122
217.4763322564211
219.37465179138638
222.74060584328842
228.3718166066651
237.26525144149596
250.55158661023978
269.6464052493223
358.48653615292375
311.61368846159877
274.1006540455483
245.34167236355148
224.28558717256945
209.55751216529788
199.7093876633791
193.40792515013757
189.54443466396728
187.27116596103542
185.9852616462893
185.28467481838425
184.91635967416832
184.7291954998842
184.63721075495232
184.59376711893154
184.57502599158127
184.57046655927672
184.57867026005863
184.60764714454916
184.68022889448184
184.84633549274182
185.2047645486177
185.9366726519821
187.35005349820457
189.928395227323
194.36828588577904
201.58426749167327
212.66041427978683
228.74950384846932
250.55160617507556
317.93903256181176
274.1006335841736
239.53309917870462
213.424101785041
194.55241710689586
181.49997803613442
172.85725066236046
167.3732933079642
164.03476275555136
162.08191015874894
160.9825316417876
160.38585623540135
160.0731181302218
159.91460388278293
159.8369755867053
159.80076984987764
159.7863044879465
159.785984293262
159.80165103287197
159.84674519763243
159.95429148157967
160.1928872545707
160.69325137690743
161.68650401661475
163.55118392460443
166.85870204448304
172.3985470072847
181.15934383646913
194.2431336823132
212.6604048696565
237.26526135692822
286.1698852779135
245.34164360128943
213.42410306150472
189.49058977492615
172.28689107863792
160.43434608802647
152.6050693702694
147.64305662114825
144.62265298818213
142.85462501942706
141.8579324282579
141.31599672481894
141.0313493315906
140.88679685918507
140.81603195170283
140.78350140714264
140.77196357304078
140.77606272164078
140.80097959386288
140.8663069214368
141.0165247289342
141.34034264678252
142.0009815891943
143.27720733363861
145.60971500798667
149.6396836610178
156.2188740062153
166.36733795333666
181.1593590844584
201.58428050325145
228.3718081499393
262.43339645389307
224.285561843023
194.55240379229804
172.28695383129394
156.2806849298965
145.23890596089555
137.9291783976492
133.283319669931
130.44622782793377
128.7797758289003
127.83705020059546
127.32269525263469
127.05166761238216
126.91369622281908
126.8462238022613
126.81583955575603
126.80691591644606
126.81612317753154
126.85219900844845
126.94140055134659
127.14017524573421
127.55715556953983
128.38581730268288
129.9461498730014
132.7279110812801
137.42063209328037
144.9097095141887
156.21886740117418
172.39854249863365
194.36828405245794
222.74061180518254
245.50459607577844
209.5575458404518
181.50002254716523
160.43431603800607
145.2388943739151
134.71574087725986
127.72101905592318
123.25738476065
120.52099849560359
118.9078713573048
117.992293341425
117.49126781421803
117.22660544978959
117.0916853439791
117.02591243115184
116.99712416143645
116.99094781132702
117.0060499512681
117.05486423019872
117.17039971804591
117.42065038658251
117.93236152709733
118.9246945295457
120.74987302664594
123.93209142333411
129.1895584441891
137.42062929971382
149.63968494308693
166.85870900199856
189.9283743224384
219.3746454464119
233.97145730778126
199.70940946827565
172.85729498060005
152.60503417115794
137.9291648589815
127.72101571887109
120.90811246257967
116.54471184171156
113.86122625193494
112.27491948701167
111.3724465781899
110.87762422981523
110.6158574508727
110.48238514594783
110.41765859297404
110.39034141839217
110.38716864030742
110.40877734712835
110.47123077143381
110.61388537437742
110.91499122864649
111.51637387000636
112.65702828870153
114.71183786352108
118.2262298048005
123.93208799034987
132.72790376800353
145.60970430511145
163.55118211505447
187.3500513159389
217.4763410415882
226.45885442752018
193.40795131885707
167.3732388540958
147.64302592418716
133.28331859332422
123.25739449865318
116.5447095581904
112.23405826892525
109.57721393365692
108.00387172461815
107.10749024686709
106.61546584204653
106.35500963665937
106.2222990554348
106.1583843005418
106.13255943300098
106.13258309427432
106.16096027766392
106.23707747111295
106.40580477501182
106.75376681605609
107.43426464629367
108.70016406781706
110.94052116455441
114.71183605293112
120.74987047872135
129.9461514403482
143.2772084899419
161.6864897798288
185.93665352630316
216.46577776856228
221.77396660462418
189.5444678506843
164.03471807731384
144.6226353089233
130.44622978879607
120.52098974779123
113.86122429118538
109.5772201704335
106.93328452347541
105.36597925511975
104.47233896264679
103.98155243857971
103.72171560106679
103.58949144209481
103.5263164097143
103.50201279797082
103.5052674717803
103.54025071937949
103.6291727503339
103.82131917364667
104.20958738840514
104.95523255718683
106.31983497285059
108.70016575924257
112.65702869544896
118.92469381281579
128.38581596618528
142.0009774541542
160.69325504650857
185.20477131743294
215.95755229161824
218.9728843902658
187.27110202710543
162.0818875743879
142.8546217564815
128.77978804925678
118.9078704070147
112.27492449027811
108.0038703855642
105.36597816859252
103.80139327739691
102.9089612216645
102.41873011895873
102.15922820889126
102.02738713655626
101.9649247019262
101.94211492767928
101.94844684819557
101.98947412167736
102.08962640760875
102.30144485690259
102.72212686601961
103.51791758616311
104.95523136630659
107.43426431913052
111.51637364798289
117.93236101138298
127.55715536764397
141.34032588976987
160.1928727226128
184.8463187569156
215.71574545352073
217.36436953578905
185.98521171048841
160.98251942257028
141.85793788331648
127.83704055741228
117.99229464308317
111.37245342288291
107.10749048343084
104.4723404595799
102.90896110748058
102.0170661573103
101.5271108883405
101.26783890088572
101.13634444921378
101.07456518282115
101.05314996616329
101.06223906303944
101.10845352177088
101.21783381623496
101.44512515334121
101.89020902293058
102.72212809129338
104.20958776789587
106.75376571936243
110.91498945634046
117.42064913789527
127.14017237624851
141.0165229860211
159.95429660473576
184.6802374059427
215.60698505954778
216.47544171650264
185.28464223785454
160.3858542129396
141.31600896467233
127.32268705996508
117.49127158304806
110.8776202953544
106.61546661953794
103.98154976366575
102.41873010944032
101.52711178191834
101.03734301228728
100.77827859306433
100.64712227309347
100.58598358431786
100.56580629580222
100.57722394220609
100.62762075434898
100.7441151636698
100.98281902244855
101.44512606355927
102.30144553340573
103.82131865494928
106.40580707137171
110.61388878768742
117.17040587518423
126.94139594306482
140.86630122373344
159.84674638308087
184.6076489299077
215.5612343454131
216.0020005359641
184.91635419677624
160.07313547536958
141.03133663595145
127.05166966970323
117.22661694856902
110.61585662814709
106.3550131447473
103.72171431458392
102.15922907185166
101.26783839202952
100.7782782993488
100.51945796255744
100.38865788585801
100.3281162234456
100.308995662902
100.32227788796118
100.37585324581423
100.49750423804161
100.74411447052451
101.21783358902516
102.08962736426687
103.62917077397651
106.23707671033672
110.47122942892852
117.05486211157529
126.85219739079376
140.80097805588068
159.80165760531094
184.57864761296713
215.5445404621473
215.75839651886335
184.72919426991498
159.9146267127963
140.88678535942523
126.91369994868612
117.09167839252358
110.48238559880166
106.22229638033872
103.58949062017042
102.02738845683699
101.13634382221372
100.64712224813712
100.38865781520009
100.2582808966711
100.19831965117076
100.18009109138735
100.19480820058544
100.25067514268795
100.37585314260109
100.62762093858598
101.10845343261227
101.98947471720633
103.54025053905957
106.16096232114458
110.4087809726676
117.00604690250292
126.81611918238636
140.7760579423741
159.78598552588838
184.5704703214836
215.54267135246107
215.63719020539165
184.63722977394892
159.83696215311323
140.81603262819644
126.84623857462321
117.02591084057117
110.41766421529377
106.15838369504233
103.52631636832356
101.96492442104974
101.07456516969577
100.58598379377094
100.32811615125699
100.19831972798164
100.13898672240049
100.12154225976585
100.13735174294276
100.19480813687959
100.32227771657396
100.57722370073263
101.06223909278499
101.94844642957734
103.50526561247284
106.13258237807452
110.38716719377273
116.99094687578527
126.80691513672564
140.7719632306582
159.78628881209758
184.5750221804145
215.55243435338787
215.57893640173913
184.5937891844459
159.8007574752037
140.78350452515187
126.81582857336177
116.99712396661221
110.39033654036638
106.13255969818066
103.50201374745855
101.94211463599152
101.05315007617183
100.5658057815993
100.30899568600361
100.18009097721264
100.12154226164974
100.10486561641727
100.1215422918808
100.18009102229145
100.30899586263521
100.56580601053382
101.05314980638343
101.94211559377221
103.50201277360082
106.13256177577667
110.39033933159149
116.99712149996081
126.81583702510876
140.78349712024342
159.80077431681408
184.59375746070236
215.57893799543623
215.5524642499667
184.57500277348
159.78631108115357
140.77198198578
126.8069126546916
116.99095542111701
110.38716745196011
106.13258508690237
103.50526560863912
101.9484475350478
101.06223985236423
100.5772236931526
100.32227813627914
100.19480817248525
100.1373517732482
100.12154231494134
100.13898677118274
100.19831958837936
100.3281162217176
100.58598343532508
101.07456459169428
101.9649244201197
103.52631468104265
106.15838338083056
110.41765825313564
117.02591210924341
126.84622420572525
140.81601443638803
159.83697274187512
184.6371943179265
215.6371830956567
215.5427036756947
184.57044900422156
159.78599489099997
140.77604530004376
126.81612218187114
117.00604215636801
110.40877742402975
106.16096375447023
103.54024884081096
101.98947516496762
101.1084530026234
100.62762060748784
100.37585304923067
100.25067507649331
100.1948082538284
100.18009110697376
100.19831966937973
100.25828098452543
100.38865792645986
100.6471220835738
101.13634432501823
102.02738780529202
103.58949174295003
106.2222978606784
110.4823835595386
117.09168335835481
126.9136931617482
140.88679518784178
159.91459563401102
184.72918684635582
215.7584202577043
215.54450386018456
184.57866005744657
159.80166794691817
140.80096341089217
126.85220155981175
117.05485695110448
110.47123013267769
106.23707443294634
103.62917131374977
102.08962790373215
101.21783310416896
100.7441149799496
100.49750413010423
100.37585317538861
100.32227787768164
100.30899565652354
100.3281161705742
100.388657961767
100.51945785323403
100.77827817275598
101.26783873547596
102.15922872605957
103.72171522424534
106.35501117118658
110.61586034184145
117.22661120764982
127.05166250583726
141.03135204784635
160.07311769233368
184.91635981828972
216.00203902036168
215.56121303643314
184.60765979658404
159.84672788456746
140.8663044561538
126.94138842641124
117.17040027138505
110.61389091330452
106.40580429596608
103.82131942084717
102.30144480017914
101.44512549009559
100.98281884883545
100.74411502815259
100.62762088180749
100.57722396666146
100.56580629983681
100.58598362290404
100.64712231864115
100.77827849289281
101.0373432617141
101.5271113656289
102.41873068639069
103.98155047444774
106.61546506946759
110.87762306257267
117.49126619286685
127.3226933358459
141.3159846504679
160.38584885042846
185.2846661646772
216.47550237597423
215.60699431048843
184.68024691281508
159.95427540058807
141.01652783041098
127.14016460801487
117.42065016872542
110.91498586504134
106.75376664923675
104.20958871465443
102.72212727830306
101.8902099552743
101.44512500028294
101.21783369828752
101.10845348683183
101.06223901138155
101.05314996649933
101.07456524954456
101.1363443776662
101.26783884670432
101.52711105680369
102.01706591735535
102.90896156683779
104.47233913234382
107.10749268045967
111.37244940769935
117.99228978065713
127.83705217308378
141.85792705325767
160.98253097777825
185.9852617236817
217.36430752247935
215.71575131858887
184.84629157102884
160.19287614248015
141.34031519955326
127.55714737139608
117.93236425553468
111.5163695004681
107.43426564231437
104.95523023702457
103.51791667846015
102.72212657476378
102.30144459998071
102.08962665847554
101.98947420792607
101.9484468561758
101.94211494200736
101.96492470866971
102.02738707899631
102.15922833422977
102.41872988283475
102.90896155888994
103.80139363129219
105.36597722930541
108.0038721831263
112.27492122482627
118.90787576932904
128.7797727849045
142.8546233069003
162.0819182997693
187.27117718640895
218.97286492581168
215.9575802330135
185.20476258736994
160.69327631944506
142.00097858498805
128.38582658297474
118.92469536464455
112.65703548027595
108.70017151626428
106.31983718658768
104.95523722972406
104.20959007095789
103.82132172534524
103.62917533838935
103.54025320635742
103.50527013309666
103.50201550946386
103.52631892586962
103.58949402120835
103.72171819716002
103.98155467778558
104.47234143002899
105.36598038449128
106.93328731096155
109.57721837032736
113.86122122707768
120.52099692956382
130.44622054800692
144.6226425951143
164.03475641585888
189.5444057598683
221.77394120223926
216.46577093352755
185.9366789482249
161.68649202002803
143.277210602469
129.94616623222
120.74987275329622
114.71184480456063
110.94052522156909
108.70016780673564
107.43426890019202
106.75377086901322
106.4058096309004
106.23708207895689
106.16096465963376
106.13258742617546
106.13256371889993
106.15838857515877
106.22230339861002
106.35501374776155
106.61547023746971
107.1074943532234
108.00387489868415
109.57721834997564
112.23405890551685
116.54471514567406
123.25738483932537
133.28331966409903
147.64304726959443
167.37329068912402
193.4079183898472
226.4588382389458
217.47632576292412
187.35007059421181
163.55117779294625
145.60971436204193
132.72790279138866
123.93209551905029
118.22623669140611
114.71183996846825
112.65703446183633
111.51637730335088
110.91499446981034
110.6138886638985
110.4712338574157
110.40878084224755
110.3871722476724
110.39034471171033
110.41766210989302
110.48238861009833
110.61586070134163
110.87762772275954
111.37244946912563
112.2749235458303
113.8612278201031
116.54471346861017
120.90812152765699
127.72101445865236
137.92917645831636
152.6050693823982
172.85724678773528
199.70938565964775
233.97145924908529
219.3746534605194
189.9283589124433
166.8586970516484
149.63969227661582
137.4206225275989
129.18956199671925
123.9320895867728
120.74987142523159
118.92469397029734
117.93236083642974
117.42065114405176
117.17040029635677
117.05486440885761
117.00605001786346
116.99094779037135
116.99712424090926
117.02591256024441
117.09168541662802
117.22660588240015
117.4912679707
117.9922933345691
118.9078724736016
120.52099778602681
123.25738801164725
127.72101301943388
134.71574338908619
145.2389125702299
160.434357114936
181.4999921462828
209.55752197196247
245.50459776657672
222.7406095541528
194.3682582033667
172.3985371953181
156.21885010160537
144.90970469494854
137.4206275255645
132.72790071503115
129.94614553381382
128.3858096219519
127.55714766976297
127.14016740351832
126.94139234234645
126.85219153016885
126.81611591488783
126.80690815805656
126.81583222218889
126.84621632761485
126.91368857348658
127.05166022387098
127.32268770500467
127.83704346156799
128.77976775711284
130.4462206528429
133.2833176414459
137.9291695378223
145.23890658903014
156.28070247330075
172.28690196542993
194.55236602243403
224.2855374446251
262.4333943230073
228.37182045921506
201.5842947998793
181.15939449822793
166.36735466276346
156.2189018035429
149.63970371446982
145.6097347326001
143.27722787492505
142.00100167255675
141.34036468404656
141.01654659642261
140.8663281370705
140.80100057993803
140.77608354249332
140.77198463172064
140.78352245887203
140.8160530031553
140.8868182794987
141.0313702046755
141.31601759675462
141.85795381666944
142.85464478337727
144.6226745034459
147.64307052379218
152.6050872844197
160.43437227627754
172.28692945390927
189.49056116104566
213.4240677222419
245.34161462876355
286.16988934988007
237.26527208272722
212.66043787355034
194.24314975939754
181.1593720800998
172.3985740378415
166.85872112399173
163.5512096856883
161.68652560712866
160.6932725255985
160.19290832819075
159.9543118835264
159.84676656551375
159.80167271304245
159.78600534304658
159.78632613668745
159.8007912418264
159.83699674688367
159.9146251926308
160.07313936715687
160.38587774006743
160.9825518404587
162.08193090345875
164.03478585947545
167.37330946670812
172.85727125085003
181.50000698663627
194.55238235932947
213.42406868830446
239.53306275722613
274.10060096528747
317.93902993671543
250.55160894241413
228.74952738407833
212.66041706640468
201.58428257316072
194.36829275253154
189.92840198111486
187.3500612845024
185.93668006505112
185.2047745666459
184.84634528323954
184.68023775170994
184.60765576081403
184.5786786853087
184.57047544361913
184.57503478247887
184.59377595699232
184.637219996436
184.72920404567893
184.9163685066906
185.28468404332233
185.9852697102042
187.2711752039756
189.5444382887829
193.40793174713232
199.70939980501475
209.55753266190823
224.28554717989633
245.34162010962527
274.10059413875234
311.6136310280353
358.48644117843827
269.6464216602559
250.55158102088367
237.2652581810532
228.37182235564052
222.74060283137644
219.37465612731225
217.47633195990184
216.46578809901857
215.9575337584892
215.71575252760803
215.60699829783744
215.56122050351533
215.5445366745231
215.54267246715222
215.55244269980656
215.5789359400456
215.6371907787829
215.75841930707927
216.00202876672012
216.47550079332214
217.3643104928499
218.9728501100983
221.77395577649088
226.45883878829
233.97145325311624
245.50459230717803
262.4333947878705
286.1698796597254
317.9390061461113
358.4864233068474
407.0987822581812
