# vtk DataFile Version 2.0
Unstructured Grid Example
ASCII
DATASET UNSTRUCTURED_GRID

POINTS 961 float
0.150000006 -0.00839745998 0
0.146666661 -0.00839745998 0
0.143333331 -0.00839745998 0
0.140000001 -0.00839745998 0
0.13666667 -0.00839745998 0
0.13333334 -0.00839745998 0
0.129999995 -0.00839745998 0
0.126666665 -0.00839745998 0
0.123333335 -0.00839745998 0
0.119999997 -0.00839745998 0
0.116666667 -0.00839745998 0
0.113333337 -0.00839745998 0
0.109999999 -0.00839745998 0
0.106666669 -0.00839745998 0
0.103333332 -0.00839745998 0
0.100000001 -0.00839745998 0
0.0966666639 -0.00839745998 0
0.0933333337 -0.00839745998 0
0.0900000036 -0.00839745998 0
0.086666666 -0.00839745998 0
0.0833333358 -0.00839745998 0
0.0799999982 -0.00839745998 0
0.0766666681 -0.00839745998 0
0.0733333305 -0.00839745998 0
0.0700000003 -0.00839745998 0
0.0666666701 -0.00839745998 0
0.0633333325 -0.00839745998 0
0.0599999987 -0.00839745998 0
0.0566666685 -0.00839745998 0
0.0533333346 -0.00839745998 0
0.0500000007 -0.00839745998 0
0.148333326 -0.0112842107 0
0.144999996 -0.0112842107 0
0.141666666 -0.0112842107 0
0.138333336 -0.0112842107 0
0.135000005 -0.0112842107 0
0.13166666 -0.0112842107 0
0.12833333 -0.0112842107 0
0.125 -0.0112842107 0
0.12166667 -0.0112842107 0
0.118333332 -0.0112842107 0
0.115000002 -0.0112842107 0
0.111666664 -0.0112842107 0
0.108333334 -0.0112842107 0
0.104999997 -0.0112842107 0
0.101666667 -0.0112842107 0
0.0983333364 -0.0112842107 0
0.0949999988 -0.0112842107 0
0.0916666687 -0.0112842107 0
0.088333331 -0.0112842107 0
0.0850000009 -0.0112842107 0
0.0816666633 -0.0112842107 0
0.0783333331 -0.0112842107 0
0.075000003 -0.0112842107 0
0.0716666654 -0.0112842107 0
0.0683333352 -0.0112842107 0
0.0649999976 -0.0112842107 0
0.0616666675 -0.0112842107 0
0.0583333336 -0.0112842107 0
0.0549999997 -0.0112842107 0
0.0516666658 -0.0112842107 0
0.0483333319 -0.0112842107 0
0.146666661 -0.0141709624 0
0.143333331 -0.0141709624 0
0.140000001 -0.0141709624 0
0.13666667 -0.0141709624 0
0.13333334 -0.0141709624 0
0.129999995 -0.0141709624 0
0.126666665 -0.0141709624 0
0.123333335 -0.0141709624 0
0.119999997 -0.0141709624 0
0.116666667 -0.0141709624 0
0.113333337 -0.0141709624 0
0.109999999 -0.0141709624 0
0.106666669 -0.0141709624 0
0.103333332 -0.0141709624 0
0.100000001 -0.0141709624 0
0.0966666639 -0.0141709624 0
0.0933333337 -0.0141709624 0
0.0900000036 -0.0141709624 0
0.086666666 -0.0141709624 0
0.0833333358 -0.0141709624 0
0.0799999982 -0.0141709624 0
0.0766666681 -0.0141709624 0
0.0733333305 -0.0141709624 0
0.0700000003 -0.0141709624 0
0.0666666701 -0.0141709624 0
0.0633333325 -0.0141709624 0
0.0599999987 -0.0141709624 0
0.0566666685 -0.0141709624 0
0.0533333346 -0.0141709624 0
0.0500000007 -0.0141709624 0
0.0466666669 -0.0141709624 0
0.144999996 -0.0170577131 0
0.141666666 -0.0170577131 0
0.138333336 -0.0170577131 0
0.135000005 -0.0170577131 0
0.13166666 -0.0170577131 0
0.12833333 -0.0170577131 0
0.125 -0.0170577131 0
0.12166667 -0.0170577131 0
0.118333332 -0.0170577131 0
0.115000002 -0.0170577131 0
0.111666664 -0.0170577131 0
0.108333334 -0.0170577131 0
0.104999997 -0.0170577131 0
0.101666667 -0.0170577131 0
0.0983333364 -0.0170577131 0
0.0949999988 -0.0170577131 0
0.0916666687 -0.0170577131 0
0.088333331 -0.0170577131 0
0.0850000009 -0.0170577131 0
0.0816666633 -0.0170577131 0
0.0783333331 -0.0170577131 0
0.075000003 -0.0170577131 0
0.0716666654 -0.0170577131 0
0.0683333352 -0.0170577131 0
0.0649999976 -0.0170577131 0
0.0616666675 -0.0170577131 0
0.0583333336 -0.0170577131 0
0.0549999997 -0.0170577131 0
0.0516666658 -0.0170577131 0
0.0483333319 -0.0170577131 0
0.0450000018 -0.0170577131 0
0.143333331 -0.0199444648 0
0.140000001 -0.0199444648 0
0.13666667 -0.0199444648 0
0.13333334 -0.0199444648 0
0.129999995 -0.0199444648 0
0.126666665 -0.0199444648 0
0.123333335 -0.0199444648 0
0.119999997 -0.0199444648 0
0.116666667 -0.0199444648 0
0.113333337 -0.0199444648 0
0.109999999 -0.0199444648 0
0.106666669 -0.0199444648 0
0.103333332 -0.0199444648 0
0.100000001 -0.0199444648 0
0.0966666639 -0.0199444648 0
0.0933333337 -0.0199444648 0
0.0900000036 -0.0199444648 0
0.086666666 -0.0199444648 0
0.0833333358 -0.0199444648 0
0.0799999982 -0.0199444648 0
0.0766666681 -0.0199444648 0
0.0733333305 -0.0199444648 0
0.0700000003 -0.0199444648 0
0.0666666701 -0.0199444648 0
0.0633333325 -0.0199444648 0
0.0599999987 -0.0199444648 0
0.0566666685 -0.0199444648 0
0.0533333346 -0.0199444648 0
0.0500000007 -0.0199444648 0
0.0466666669 -0.0199444648 0
0.043333333 -0.0199444648 0
0.141666666 -0.0228312165 0
0.138333336 -0.0228312165 0
0.135000005 -0.0228312165 0
0.13166666 -0.0228312165 0
0.12833333 -0.0228312165 0
0.125 -0.0228312165 0
0.12166667 -0.0228312165 0
0.118333332 -0.0228312165 0
0.115000002 -0.0228312165 0
0.111666664 -0.0228312165 0
0.108333334 -0.0228312165 0
0.104999997 -0.0228312165 0
0.101666667 -0.0228312165 0
0.0983333364 -0.0228312165 0
0.0949999988 -0.0228312165 0
0.0916666687 -0.0228312165 0
0.088333331 -0.0228312165 0
0.0850000009 -0.0228312165 0
0.0816666633 -0.0228312165 0
0.0783333331 -0.0228312165 0
0.075000003 -0.0228312165 0
0.0716666654 -0.0228312165 0
0.0683333352 -0.0228312165 0
0.0649999976 -0.0228312165 0
0.0616666675 -0.0228312165 0
0.0583333336 -0.0228312165 0
0.0549999997 -0.0228312165 0
0.0516666658 -0.0228312165 0
0.0483333319 -0.0228312165 0
0.0450000018 -0.0228312165 0
0.0416666679 -0.0228312165 0
0.140000001 -0.0257179681 0
0.13666667 -0.0257179681 0
0.13333334 -0.0257179681 0
0.129999995 -0.0257179681 0
0.126666665 -0.0257179681 0
0.123333335 -0.0257179681 0
0.119999997 -0.0257179681 0
0.116666667 -0.0257179681 0
0.113333337 -0.0257179681 0
0.109999999 -0.0257179681 0
0.106666669 -0.0257179681 0
0.103333332 -0.0257179681 0
0.100000001 -0.0257179681 0
0.0966666639 -0.0257179681 0
0.0933333337 -0.0257179681 0
0.0900000036 -0.0257179681 0
0.086666666 -0.0257179681 0
0.0833333358 -0.0257179681 0
0.0799999982 -0.0257179681 0
0.0766666681 -0.0257179681 0
0.0733333305 -0.0257179681 0
0.0700000003 -0.0257179681 0
0.0666666701 -0.0257179681 0
0.0633333325 -0.0257179681 0
0.0599999987 -0.0257179681 0
0.0566666685 -0.0257179681 0
0.0533333346 -0.0257179681 0
0.0500000007 -0.0257179681 0
0.0466666669 -0.0257179681 0
0.043333333 -0.0257179681 0
0.0399999991 -0.0257179681 0
0.138333336 -0.0286047198 0
0.135000005 -0.0286047198 0
0.13166666 -0.0286047198 0
0.12833333 -0.0286047198 0
0.125 -0.0286047198 0
0.12166667 -0.0286047198 0
0.118333332 -0.0286047198 0
0.115000002 -0.0286047198 0
0.111666664 -0.0286047198 0
0.108333334 -0.0286047198 0
0.104999997 -0.0286047198 0
0.101666667 -0.0286047198 0
0.0983333364 -0.0286047198 0
0.0949999988 -0.0286047198 0
0.0916666687 -0.0286047198 0
0.088333331 -0.0286047198 0
0.0850000009 -0.0286047198 0
0.0816666633 -0.0286047198 0
0.0783333331 -0.0286047198 0
0.075000003 -0.0286047198 0
0.0716666654 -0.0286047198 0
0.0683333352 -0.0286047198 0
0.0649999976 -0.0286047198 0
0.0616666675 -0.0286047198 0
0.0583333336 -0.0286047198 0
0.0549999997 -0.0286047198 0
0.0516666658 -0.0286047198 0
0.0483333319 -0.0286047198 0
0.0450000018 -0.0286047198 0
0.0416666679 -0.0286047198 0
0.038333334 -0.0286047198 0
0.13666667 -0.0314914696 0
0.13333334 -0.0314914696 0
0.129999995 -0.0314914696 0
0.126666665 -0.0314914696 0
0.123333335 -0.0314914696 0
0.119999997 -0.0314914696 0
0.116666667 -0.0314914696 0
0.113333337 -0.0314914696 0
0.109999999 -0.0314914696 0
0.106666669 -0.0314914696 0
0.103333332 -0.0314914696 0
0.100000001 -0.0314914696 0
0.0966666639 -0.0314914696 0
0.0933333337 -0.0314914696 0
0.0900000036 -0.0314914696 0
0.086666666 -0.0314914696 0
0.0833333358 -0.0314914696 0
0.0799999982 -0.0314914696 0
0.0766666681 -0.0314914696 0
0.0733333305 -0.0314914696 0
0.0700000003 -0.0314914696 0
0.0666666701 -0.0314914696 0
0.0633333325 -0.0314914696 0
0.0599999987 -0.0314914696 0
0.0566666685 -0.0314914696 0
0.0533333346 -0.0314914696 0
0.0500000007 -0.0314914696 0
0.0466666669 -0.0314914696 0
0.043333333 -0.0314914696 0
0.0399999991 -0.0314914696 0
0.0366666652 -0.0314914696 0
0.135000005 -0.0343782231 0
0.13166666 -0.0343782231 0
0.12833333 -0.0343782231 0
0.125 -0.0343782231 0
0.12166667 -0.0343782231 0
0.118333332 -0.0343782231 0
0.115000002 -0.0343782231 0
0.111666664 -0.0343782231 0
0.108333334 -0.0343782231 0
0.104999997 -0.0343782231 0
0.101666667 -0.0343782231 0
0.0983333364 -0.0343782231 0
0.0949999988 -0.0343782231 0
0.0916666687 -0.0343782231 0
0.088333331 -0.0343782231 0
0.0850000009 -0.0343782231 0
0.0816666633 -0.0343782231 0
0.0783333331 -0.0343782231 0
0.075000003 -0.0343782231 0
0.0716666654 -0.0343782231 0
0.0683333352 -0.0343782231 0
0.0649999976 -0.0343782231 0
0.0616666675 -0.0343782231 0
0.0583333336 -0.0343782231 0
0.0549999997 -0.0343782231 0
0.0516666658 -0.0343782231 0
0.0483333319 -0.0343782231 0
0.0450000018 -0.0343782231 0
0.0416666679 -0.0343782231 0
0.038333334 -0.0343782231 0
0.0350000001 -0.0343782231 0
0.13333334 -0.0372649729 0
0.129999995 -0.0372649729 0
0.126666665 -0.0372649729 0
0.123333335 -0.0372649729 0
0.119999997 -0.0372649729 0
0.116666667 -0.0372649729 0
0.113333337 -0.0372649729 0
0.109999999 -0.0372649729 0
0.106666669 -0.0372649729 0
0.103333332 -0.0372649729 0
0.100000001 -0.0372649729 0
0.0966666639 -0.0372649729 0
0.0933333337 -0.0372649729 0
0.0900000036 -0.0372649729 0
0.086666666 -0.0372649729 0
0.0833333358 -0.0372649729 0
0.0799999982 -0.0372649729 0
0.0766666681 -0.0372649729 0
0.0733333305 -0.0372649729 0
0.0700000003 -0.0372649729 0
0.0666666701 -0.0372649729 0
0.0633333325 -0.0372649729 0
0.0599999987 -0.0372649729 0
0.0566666685 -0.0372649729 0
0.0533333346 -0.0372649729 0
0.0500000007 -0.0372649729 0
0.0466666669 -0.0372649729 0
0.043333333 -0.0372649729 0
0.0399999991 -0.0372649729 0
0.0366666652 -0.0372649729 0
0.0333333351 -0.0372649729 0
0.13166666 -0.0401517227 0
0.12833333 -0.0401517227 0
0.125 -0.0401517227 0
0.12166667 -0.0401517227 0
0.118333332 -0.0401517227 0
0.115000002 -0.0401517227 0
0.111666664 -0.0401517227 0
[...]
POINT_DATA 961
SCALARS Temp float 1
LOOKUP_TABLE default
349.7309984167735
299.9135161340717
261.27809499943714
234.02614374967192
216.15905367559048
205.23416347129478
198.98096703663336
195.61592766292617
193.90528747027957
193.07976050435659
192.69976698356663
192.53218312609673
192.46108043643846
192.431951708886
192.42039358419566
192.41594123518007
192.41429271429757
192.41377540888482
192.4139149036617
192.41510465523308
192.41935181355322
192.4330344003143
192.47444742865645
192.59205787596804
192.9035912365682
193.66859271355912
195.40002675763193
198.9944750514478
205.81730242986376
217.65478800607627
236.80221564130457
299.91353241232963
253.04505956960665
218.80330825334016
195.40716539487184
180.50441156235368
171.630808730657
166.67355681499217
164.06378027992227
162.76288813151433
162.14597250786667
161.86637071263831
161.7447421010295
161.69376401942637
161.67310636638516
161.66498941909984
161.66190053700663
161.6607968597474
161.66057181794616
161.66112461223736
161.6634876686844
161.67137180795928
161.6958494021134
161.767296742536
161.96247447042074
162.45858810968207
163.62517934261
166.1496634887036
171.15634525784947
180.23372133770766
195.28266796432283
217.6548067769706
261.27805469965335
218.80329230190935
188.31912756038648
167.84120003187144
154.96567437177788
147.3742170995257
143.16345011802
140.9574572668855
139.86116534101816
139.342103204507
139.10697101078517
139.0046597431458
138.9617442524901
138.94433510588794
138.93748981352712
138.93489316886632
138.93401418879378
138.93402400946613
138.93517329718108
138.9393810589479
138.9528197821826
138.99303190961606
139.1059826589362
139.40234076794013
140.1246828164174
141.7516919929802
145.1228660430103
151.52575132264028
162.64604592710515
180.23371171743023
205.8173103025464
234.02609928244289
195.40714597129963
167.8412041841657
149.37684043382038
137.77192208955663
130.91868230035487
127.10593072617716
125.10069805756261
124.09985010724526
123.6238534981667
123.40727647234631
123.31264404914205
123.27279446729294
123.25657171483593
123.25017876721617
123.24776824675368
123.24702794554935
123.24732726425923
123.24935789146986
123.25624473602527
123.27738401389476
123.33827599758001
123.50269592563288
123.91691767524189
124.88576524584433
126.98018729077783
131.1490506156517
138.76753573715564
151.52576416614974
171.15635754821722
198.99446684533098
216.15902021868123
180.5043981592985
154.96566963483627
137.7719647107405
126.90163256489915
120.44265582664715
116.82772446846239
114.9159411693585
113.95695001591238
113.49883837022203
113.2895951764727
113.1978633649017
113.15912568581835
113.14332007477093
113.13708631816831
113.13476385824798
113.13416311336435
113.13486290440203
113.13811381604218
113.14854911757003
113.17935721874962
113.26473571335114
113.48639864197156
114.02326381150873
115.23125434962067
117.7472470330148
122.58386715195051
131.1490452207078
145.12286246584216
166.1496609733023
195.4000331584054
205.23413350134754
171.63083229311317
147.37424814948378
130.9186580266522
120.44264700273797
114.18036553084207
110.65772888391007
108.78695371557576
107.84533000301207
107.39426868688682
107.18778646625368
107.09710121388139
107.0587500543142
107.04308747667227
107.03691769616049
107.03466396905385
107.03423723393198
107.03546543785762
107.04026547951061
107.05497133997142
107.09675564632327
107.20824783282299
107.48704240926236
108.13810159797399
109.55334479151308
112.40911102628569
117.74724542752385
126.9801883198424
141.75169866048282
163.62516026720695
193.66858477428715
198.98097008172434
166.6735723479136
143.16348494937455
127.1059020680937
116.82771484718047
110.65772702073417
107.17578542802387
105.32209615593021
104.3873360640796
103.93893091574625
103.73344406836247
103.64312170181778
103.60490137018257
103.58928923023566
103.58315557968221
103.58097638352537
103.5807688051467
103.58264162907038
103.58923546111465
103.60860724320774
103.66165703259614
103.79824333823092
104.1282906587371
104.87478578941445
106.45126775544516
109.55334277936183
115.23124954430874
124.88575773533194
140.12467987599098
162.45858546652445
192.90360039097496
195.61593928259933
164.06380119052895
140.95741028729088
125.10067430923776
114.91593851069257
108.78695885287475
105.32209512172446
103.47520306605539
102.54304135971223
102.09559955699797
101.89045824109938
101.80025788661322
101.76208159091829
101.74649184090356
101.74039038371711
101.73829854971747
101.7383480377927
101.74094105263256
101.74942632708142
101.77342262087649
101.83693282767729
101.99528552156049
102.36677865650428
103.18515362238139
104.87478494491421
108.13810054933872
114.02326442971322
123.9169183478078
139.40232844764176
161.96245617442577
192.5920482151653
193.90529116129198
162.76291711299822
139.8611220715136
124.09983411169515
113.9569505829298
107.8453252946185
104.38733549411955
102.54304375360587
101.61183179023757
101.16472709877519
100.95970229796858
100.86954234236656
100.83138210664353
100.81580707848013
100.80973990086311
100.80774691938237
100.80807418051471
100.8114023970481
100.8217037992168
100.84986160724095
100.9221712201145
101.0976068475675
101.49941363131474
102.36677937510493
104.12829052233343
107.48704160566422
113.48639766223829
123.50269237322529
139.10598602049305
161.7673026203574
192.47446572540048
193.0797899681107
162.14590956766085
139.34208314139266
123.62385130676317
113.49884795192186
107.39426828883133
103.93893352259336
102.0955993344255
101.16472684377952
100.71773608850204
100.51275037746474
100.42260412617009
100.38445186394806
100.3688904437257
100.36286012928379
100.36097062813515
100.36157313297686
100.36558681565748
100.37747638477614
100.40903890180817
100.48807017170958
100.67567460389995
101.09760642929444
101.99528529547429
103.79824331638505
107.20824768082898
113.26473593223507
123.3382627915456
138.99301889019685
161.69583340979446
192.43302528994008
192.69982291041714
161.86632324640712
139.1069620258962
123.40728125849307
113.28958972085435
107.18778773637135
103.73344783649654
101.89045829867224
100.95970278540584
100.51275035772382
100.30777775402515
100.21763708048596
100.17949098430238
100.16394348944786
100.15795090257676
100.15616133011125
100.15701381536657
100.16161164445752
100.17476805683138
100.20886809920442
100.2925742670915
100.48807044983378
100.92217135639467
101.83693240214029
103.66165625461517
107.09675476410077
113.17935486557457
123.27738275316386
138.95282412836022
161.67138009745491
192.4193386529485
192.53212701482408
161.7447136289694
139.00466003046543
123.31265544562338
113.19785872122027
107.09710353786382
103.64312001268755
101.80025820949339
100.8695414921094
100.4226041414026
100.21763724558092
100.12750070235866
100.08936107735872
100.07382808151783
100.067871723203
100.06617127147159
100.06723214549925
100.0722855171451
100.08636541869818
100.12219275885516
100.20886828638153
100.40903906512365
100.8498614326931
101.77342341514402
103.60860873261338
107.05497489015123
113.14854597744865
123.25624028278503
138.93938193406623
161.66348890609655
192.41511842470388
192.46105728424686
161.69376271290585
138.96176172667927
123.27278629582698
113.15912753527861
107.05875710716501
103.60490095043488
101.76208306782546
100.83138164623125
100.38445207393153
100.17949088624214
100.08936102719119
100.05123030283907
100.03571317649478
100.02979029167913
100.0281639818886
100.02938500975318
100.03476444894427
100.04946115932881
100.08636530946187
100.17476801501023
100.37747661710807
100.82170315164028
101.7494260464067
103.58923484017197
107.04026416944305
113.13811267163982
123.24935661191358
138.93517893229398
161.6611026244482
192.41391807663717
192.43193324662667
161.67310760024526
138.94435671137757
123.2565633166762
113.14332248084274
107.04308370832959
103.58928932735817
101.74649079471041
100.81580680159259
100.3688907832216
100.16394335550008
100.0738280667258
100.03571316636507
100.02021625270666
100.01432528187722
100.01275823440577
100.01409403503102
100.01968882545316
100.03476443443908
100.07228554470807
100.16161161694964
100.3655869567535
100.81140233904463
101.74094184952553
103.5826433413151
107.03546368382723
113.13486016869128
123.2473234950391
138.93402463073582
161.66057548048556
192.41377503226454
192.42039418127655
161.66500841966626
138.93747853527134
123.25017899406832
113.13709632085327
107.03691653559905
103.58315832287181
101.74039005304573
100.80973986616618
100.36286005848783
100.1579508906862
100.06787175798058
100.02979028174096
100.01432528954722
100.00846963005246
100.00695145447746
100.0083663499008
100.01409402762386
100.02938498652983
100.06723210469852
100.15701382475548
100.36157303212048
100.80807358828909
101.73834775491416
103.58076803295415
107.03423668705156
113.13416256017682
123.24702763629982
138.93400089096232
161.66079336823023
192.41428516334713
192.41594135542664
161.6619211999811
138.93488137260596
123.24776997256008
113.13475664994925
107.03466358212516
103.58097407899861
101.7382985965414
100.80774721880732
100.36097053019736
100.15616134444623
100.06617118613168
100.02816398273579
100.01275822181911
100.00695145444323
100.00548018066635
100.00695145729044
100.0127582261695
100.02816400849377
100.06617122408313
100.1561612910483
100.36097079523661
100.80774690324645
101.7382994631043
103.58097540432536
107.03466241138844
113.13476235113266
123.2477647742408
138.93489760924217
161.66189174043137
192.41594404939224
192.41431213008883
161.66077356418646
138.93401933154718
123.2470421612444
113.13416056492748
107.03424160223115
103.58076808739781
101.7383487370912
100.80807358335991
100.36157329279389
100.15701397710454
100.0672320983445
100.02938504008202
100.01409403037991
100.00836635258925
100.00695145956328
100.00846963482996
100.01432527413235
100.02979029024182
100.06787169555304
100.15795077401071
100.36286004790816
100.80973935540129
101.74038995956032
103.58315547204722
107.03691752519622
113.13708671604968
123.25016543904451
138.93748737744443
161.66497431630592
192.42038546594435
192.41380618453104
161.66055427182158
138.93403284322866
123.24731402578159
113.13486194207591
107.03546099598181
103.58264154402958
101.74094241356522
100.81140175493239
100.36558706675949
100.16161152816241
100.07228548455048
100.03476442364378
100.01968881820703
100.01409404015847
100.0127582365767
100.0143252835881
100.0202162630306
100.03571318112532
100.07382803995307
100.1639434668757
100.36889061200074
100.81580718535191
101.74649137162586
103.58928847826607
107.04308643732531
113.14331784922634
123.25657089785295
138.94432775381546
161.67309795262685
192.43195260438463
192.41388299464137
161.66111507049712
138.9351885303876
123.24934494045557
113.13811552262327
107.04026109239955
103.58923503634675
101.74942515949832
100.82170329329215
100.37747676038794
100.17476791196887
100.08636539424347
100.0494611453618
100.03476444096772
100.0293850085698
100.0281639807695
100.02979028719068
100.03571318595745
100.05123028778945
100.0893610090826
100.17949095427416
100.38445199949271
100.83138194725221
101.76208225550081
103.60490275654966
107.05875350636464
113.15912224605431
123.27279631080982
138.96174384405734
161.69376369274613
192.46108989492734
192.41509789783822
161.66349962389862
138.93936597849265
123.25624221634207
113.14854081489692
107.05497145966896
103.60860975171902
101.77342224947361
100.84986167590687
100.40903888101981
100.20886815754433
100.1221927341696
100.08636539948432
100.07228553143521
100.06723215365523
100.06617127263512
100.06787172662955
100.073828086452
100.08936106317198
100.12750074672233
100.21763715655523
100.42260429507715
100.86954169044718
101.80025758530229
103.6431210478156
107.09709994928738
113.19786215373244
123.3126342379053
139.00465254087257
161.7447325620513
192.53218335975387
192.41934729421635
161.67138882299412
138.95280454608297
123.27738629603486
113.17934934639123
107.09675512232937
103.6616545615067
101.83693272779571
100.92217167902525
100.48807023712193
100.29257446449401
100.20886808194352
100.17476804138256
100.16161163886686
100.15701380522447
100.1561613316512
100.15795091685834
100.16394347838123
100.17949098121231
100.21763710727522
100.30777770582822
100.51275046755458
100.95970229714668
101.89045907574356
103.73344553868684
107.18778438553397
113.28959602430787
123.40727162392591
139.1069705870697
161.8663706281526
192.6997637378328
192.43302956431842
161.69580635608682
138.993020815262
123.3382542592389
113.264730212325
107.20824960691658
103.79824121470836
101.99528583129242
101.09760608662269
100.67567435080566
100.48807011832194
100.40903885004347
100.37747642031918
100.36558685788084
100.361573139409
100.36097062811956
100.3628601286096
100.36889043281988
100.38445188264093
100.42260408580105
100.51275045055557
100.71773614525516
101.16472649806565
102.09559982325827
103.9389316330458
107.39427103893082
113.49883686744829
123.62385245752252
139.34211080277305
162.14598306795224
193.0797774900979
192.47449227051513
161.76729255796155
139.10600407949246
123.50269244238592
113.48640409107492
107.48704214967724
104.12829344989028
102.36678156680398
101.49941435609769
101.09760823676578
100.92217211856591
100.84986243733302
100.82170461998305
100.81140318654641
100.80807502431426
100.80774780061006
100.80974070887271
100.81580793019037
100.83138294608716
100.86954310908943
100.9597031037616
101.16472751543766
101.61183263526179
102.54304268881089
104.38733350804529
107.84532838457291
113.95694406728637
124.09983996275939
139.8611570434047
162.76286138678316
193.9052701089158
192.59204090500276
161.96247948233713
139.40232955779237
123.91691883146252
114.02327395170613
108.13810117215462
104.87478895550905
103.18515533864199
102.36678017010206
101.99528722341888
101.83693443389014
101.77342442825432
101.7494282106619
101.74094279682258
101.73834974581743
101.7383002466046
101.74039207764744
101.74649356091142
101.76208328385275
101.80025965571156
101.89045987529859
102.09560096975582
102.54304304425277
103.47520327873879
105.32209763180168
108.78695292804854
114.9159393992916
125.10069147257823
140.95745502938223
164.06377384772233
195.6159246416025
192.90358409294439
162.4586038267537
140.12467520162454
124.88576484355008
115.23124857418765
109.55334689666185
106.45127125392241
104.87478691230307
104.12829322470289
103.79824517714512
103.66165867880765
103.60860883721593
103.58923694039203
103.58264330217344
103.58077060386236
103.58097796142229
103.58315732326079
103.58929091934068
103.60490298011216
103.6431233991758
103.73344562618911
103.93893274253793
104.3873370788688
105.3220973330515
107.17578997172436
110.65772713043386
116.82772386763428
127.10593107167212
143.1634466559553
166.67355324569985
198.98097215301055
193.66859223519066
163.62514513282832
141.7516875930295
126.9801944456307
117.74724055447723
112.40911316490521
109.55334408541506
108.13810098166131
107.48704226006116
107.20824752705781
107.09675588807603
107.05497190263759
107.04026565623445
107.0354654957967
107.03423724138261
107.03466402177786
107.03691779121858
107.04308758794578
107.05875034665641
107.09710123782779
107.18778658732288
107.39426910644615
107.84532986731419
108.78695530446267
110.65772666057535
114.18036840598201
120.44266125634552
130.91869069323016
147.37422764159874
171.6308146065623
205.23413677342893
195.40003222710573
166.14963647104034
145.12285843146796
131.14903212050416
122.58386364409218
117.74724378707661
115.231247793117
114.02325999972558
113.4863940078615
113.26473066101153
113.17935200038102
113.1485435546786
113.13810876672464
113.13485816539405
113.13415785906273
113.13475902584088
113.13708132999689
113.14331493525127
113.15912069814813
113.1978583766621
113.28959030494568
113.49883306108234
113.95694555919954
114.9159385660773
116.82771960231089
120.44265694973546
126.90164615893028
137.77193010114775
154.96564431647647
180.50438280180416
216.15902529567208
198.99447686013903
171.15636882858263
151.52579506464846
138.7675490962233
131.14907190645408
126.98020344276
124.88578094905776
123.91693368126539
123.50271142871216
123.33829257415286
123.27740129139525
123.2562612143988
123.24937407685557
123.24734330331758
123.24704419136306
123.24778451863193
123.25019509284598
123.25658838203776
123.27281053635225
123.3126604036986
123.40729297747595
123.62386943455331
124.09986656321868
125.10071192157064
127.10594653766329
130.9187028558636
137.77194972649718
149.3768223940544
167.8411764844076
195.40712012952218
234.02610474585947
205.8173195777093
180.23374294320303
162.64606076171043
151.525775513586
145.12288884621054
141.7517091562918
140.12470336456013
139.40236027872737
139.10600145875637
138.99305034765501
138.95283740720564
138.93939960195942
138.93519239317305
138.9340422966346
138.9340332305189
138.93491189534868
138.93750828205995
138.94435372194442
138.96176297067657
139.0046783647892
139.10698906957694
139.342122378104
139.86118474747877
140.95747404689791
143.16346918585705
147.37424027989903
154.96565775975694
167.8411809739393
188.31910158564773
218.80326730399904
261.2780585527887
217.65480886271595
195.2826912905231
180.23372454851216
171.15635857857282
166.14967112742778
163.62518670638028
162.45859594776988
161.96248169983048
161.7673058652305
161.695859360147
161.67138045831123
161.66349593176815
161.6611326413045
161.66058040686084
161.66080534233586
161.6619091128104
161.66499845129158
161.67311446511377
161.69377268531213
161.74475084115113
161.86637901385603
162.14598093853348
162.76289525872355
164.0637889804843
166.67356805749603
171.6308236850674
180.50438910998963
195.40713038625776
218.80326269998304
253.04501446846004
299.91344817149576
236.8022319117216
217.65478281852515
205.8173078162239
198.99447954574666
195.40002449927402
193.668594672702
192.90359166411375
192.59205896531384
192.47444805120557
192.43303264366835
192.41935169337424
192.41510495754142
192.41391495259307
192.41377603210518
192.41429293456332
192.415941465976
192.42039308763427
192.43195224413864
192.4610804475686
192.5321825927342
192.69976767372546
193.07976143497254
193.90528702466986
195.61592807967153
198.980967896241
205.23413256277732
216.15902157845596
234.02609878079468
261.2780370113874
299.9134303577257
349.7305937225461
