# vtk DataFile Version 2.0
Unstructured Grid Example
ASCII
DATASET UNSTRUCTURED_GRID

POINTS 961 float
0.150000006 -0.00839745998 0
0.146666661 -0.00839745998 0
0.143333331 -0.00839745998 0
0.140000001 -0.00839745998 0
0.13666667 -0.00839745998 0
0.13333334 -0.00839745998 0
0.129999995 -0.00839745998 0
0.126666665 -0.00839745998 0
0.123333335 -0.00839745998 0
0.119999997 -0.00839745998 0
0.116666667 -0.00839745998 0
0.113333337 -0.00839745998 0
0.109999999 -0.00839745998 0
0.106666669 -0.00839745998 0
0.103333332 -0.00839745998 0
0.100000001 -0.00839745998 0
0.0966666639 -0.00839745998 0
0.0933333337 -0.00839745998 0
0.0900000036 -0.00839745998 0
0.086666666 -0.00839745998 0
0.0833333358 -0.00839745998 0
0.0799999982 -0.00839745998 0
0.0766666681 -0.00839745998 0
0.0733333305 -0.00839745998 0
0.0700000003 -0.00839745998 0
0.0666666701 -0.00839745998 0
0.0633333325 -0.00839745998 0
0.0599999987 -0.00839745998 0
0.0566666685 -0.00839745998 0
0.0533333346 -0.00839745998 0
0.0500000007 -0.00839745998 0
0.148333326 -0.0112842107 0
0.144999996 -0.0112842107 0
0.141666666 -0.0112842107 0
0.138333336 -0.0112842107 0
0.135000005 -0.0112842107 0
0.13166666 -0.0112842107 0
0.12833333 -0.0112842107 0
0.125 -0.0112842107 0
0.12166667 -0.0112842107 0
0.118333332 -0.0112842107 0
0.115000002 -0.0112842107 0
0.111666664 -0.0112842107 0
0.108333334 -0.0112842107 0
0.104999997 -0.0112842107 0
0.101666667 -0.0112842107 0
0.0983333364 -0.0112842107 0
0.0949999988 -0.0112842107 0
0.0916666687 -0.0112842107 0
0.088333331 -0.0112842107 0
0.0850000009 -0.0112842107 0
0.0816666633 -0.0112842107 0
0.0783333331 -0.0112842107 0
0.075000003 -0.0112842107 0
0.0716666654 -0.0112842107 0
0.0683333352 -0.0112842107 0
0.0649999976 -0.0112842107 0
0.0616666675 -0.0112842107 0
0.0583333336 -0.0112842107 0
0.0549999997 -0.0112842107 0
0.0516666658 -0.0112842107 0
0.0483333319 -0.0112842107 0
0.146666661 -0.0141709624 0
0.143333331 -0.0141709624 0
0.140000001 -0.0141709624 0
0.13666667 -0.0141709624 0
0.13333334 -0.0141709624 0
0.129999995 -0.0141709624 0
0.126666665 -0.0141709624 0
0.123333335 -0.0141709624 0
0.119999997 -0.0141709624 0
0.116666667 -0.0141709624 0
0.113333337 -0.0141709624 0
0.109999999 -0.0141709624 0
0.106666669 -0.0141709624 0
0.103333332 -0.0141709624 0
0.100000001 -0.0141709624 0
0.0966666639 -0.0141709624 0
0.0933333337 -0.0141709624 0
0.0900000036 -0.0141709624 0
0.086666666 -0.0141709624 0
0.0833333358 -0.0141709624 0
0.0799999982 -0.0141709624 0
0.0766666681 -0.0141709624 0
0.0733333305 -0.0141709624 0
0.0700000003 -0.0141709624 0
0.0666666701 -0.0141709624 0
0.0633333325 -0.0141709624 0
0.0599999987 -0.0141709624 0
0.0566666685 -0.0141709624 0
0.0533333346 -0.0141709624 0
0.0500000007 -0.0141709624 0
0.0466666669 -0.0141709624 0
0.144999996 -0.0170577131 0
0.141666666 -0.0170577131 0
0.138333336 -0.0170577131 0
0.135000005 -0.0170577131 0
0.13166666 -0.0170577131 0
0.12833333 -0.0170577131 0
0.125 -0.0170577131 0
0.12166667 -0.0170577131 0
0.118333332 -0.0170577131 0
0.115000002 -0.0170577131 0
0.111666664 -0.0170577131 0
0.108333334 -0.0170577131 0
0.104999997 -0.0170577131 0
0.101666667 -0.0170577131 0
0.0983333364 -0.0170577131 0
0.0949999988 -0.0170577131 0
0.0916666687 -0.0170577131 0
0.088333331 -0.0170577131 0
0.0850000009 -0.0170577131 0
0.0816666633 -0.0170577131 0
0.0783333331 -0.0170577131 0
0.075000003 -0.0170577131 0
0.0716666654 -0.0170577131 0
0.0683333352 -0.0170577131 0
0.0649999976 -0.0170577131 0
0.0616666675 -0.0170577131 0
0.0583333336 -0.0170577131 0
0.0549999997 -0.0170577131 0
0.0516666658 -0.0170577131 0
0.0483333319 -0.0170577131 0
0.0450000018 -0.0170577131 0
0.143333331 -0.0199444648 0
0.140000001 -0.0199444648 0
0.13666667 -0.0199444648 0
0.13333334 -0.0199444648 0
0.129999995 -0.0199444648 0
0.126666665 -0.0199444648 0
0.123333335 -0.0199444648 0
0.119999997 -0.0199444648 0
0.116666667 -0.0199444648 0
0.113333337 -0.0199444648 0
0.109999999 -0.0199444648 0
0.106666669 -0.0199444648 0
0.103333332 -0.0199444648 0
0.100000001 -0.0199444648 0
0.0966666639 -0.0199444648 0
0.0933333337 -0.0199444648 0
0.0900000036 -0.0199444648 0
0.086666666 -0.0199444648 0
0.0833333358 -0.0199444648 0
0.0799999982 -0.0199444648 0
0.0766666681 -0.0199444648 0
0.0733333305 -0.0199444648 0
0.0700000003 -0.0199444648 0
0.0666666701 -0.0199444648 0
0.0633333325 -0.0199444648 0
0.0599999987 -0.0199444648 0
0.0566666685 -0.0199444648 0
0.0533333346 -0.0199444648 0
0.0500000007 -0.0199444648 0
0.0466666669 -0.0199444648 0
0.043333333 -0.0199444648 0
0.141666666 -0.0228312165 0
0.138333336 -0.0228312165 0
0.135000005 -0.0228312165 0
0.13166666 -0.0228312165 0
0.12833333 -0.0228312165 0
0.125 -0.0228312165 0
0.12166667 -0.0228312165 0
0.118333332 -0.0228312165 0
0.115000002 -0.0228312165 0
0.111666664 -0.0228312165 0
0.108333334 -0.0228312165 0
0.104999997 -0.0228312165 0
0.101666667 -0.0228312165 0
0.0983333364 -0.0228312165 0
0.0949999988 -0.0228312165 0
0.0916666687 -0.0228312165 0
0.088333331 -0.0228312165 0
0.0850000009 -0.0228312165 0
0.0816666633 -0.0228312165 0
0.0783333331 -0.0228312165 0
0.075000003 -0.0228312165 0
0.0716666654 -0.0228312165 0
0.0683333352 -0.0228312165 0
0.0649999976 -0.0228312165 0
0.0616666675 -0.0228312165 0
0.0583333336 -0.0228312165 0
0.0549999997 -0.0228312165 0
0.0516666658 -0.0228312165 0
0.0483333319 -0.0228312165 0
0.0450000018 -0.0228312165 0
0.0416666679 -0.0228312165 0
0.140000001 -0.0257179681 0
0.13666667 -0.0257179681 0
0.13333334 -0.0257179681 0
0.129999995 -0.0257179681 0
0.126666665 -0.0257179681 0
0.123333335 -0.0257179681 0
0.119999997 -0.0257179681 0
0.116666667 -0.0257179681 0
0.113333337 -0.0257179681 0
0.109999999 -0.0257179681 0
0.106666669 -0.0257179681 0
0.103333332 -0.0257179681 0
0.100000001 -0.0257179681 0
0.0966666639 -0.0257179681 0
0.0933333337 -0.0257179681 0
0.0900000036 -0.0257179681 0
0.086666666 -0.0257179681 0
0.0833333358 -0.0257179681 0
0.0799999982 -0.0257179681 0
0.0766666681 -0.0257179681 0
0.0733333305 -0.0257179681 0
0.0700000003 -0.0257179681 0
0.0666666701 -0.0257179681 0
0.0633333325 -0.0257179681 0
0.0599999987 -0.0257179681 0
0.0566666685 -0.0257179681 0
0.0533333346 -0.0257179681 0
0.0500000007 -0.0257179681 0
0.0466666669 -0.0257179681 0
0.043333333 -0.0257179681 0
0.0399999991 -0.0257179681 0
0.138333336 -0.0286047198 0
0.135000005 -0.0286047198 0
0.13166666 -0.0286047198 0
0.12833333 -0.0286047198 0
0.125 -0.0286047198 0
0.12166667 -0.0286047198 0
0.118333332 -0.0286047198 0
0.115000002 -0.0286047198 0
0.111666664 -0.0286047198 0
0.108333334 -0.0286047198 0
0.104999997 -0.0286047198 0
0.101666667 -0.0286047198 0
0.0983333364 -0.0286047198 0
0.0949999988 -0.0286047198 0
0.0916666687 -0.0286047198 0
0.088333331 -0.0286047198 0
0.0850000009 -0.0286047198 0
0.0816666633 -0.0286047198 0
0.0783333331 -0.0286047198 0
0.075000003 -0.0286047198 0
0.0716666654 -0.0286047198 0
0.0683333352 -0.0286047198 0
0.0649999976 -0.0286047198 0
0.0616666675 -0.0286047198 0
0.0583333336 -0.0286047198 0
0.0549999997 -0.0286047198 0
0.0516666658 -0.0286047198 0
0.0483333319 -0.0286047198 0
0.0450000018 -0.0286047198 0
0.0416666679 -0.0286047198 0
0.038333334 -0.0286047198 0
0.13666667 -0.0314914696 0
0.13333334 -0.0314914696 0
0.129999995 -0.0314914696 0
0.126666665 -0.0314914696 0
0.123333335 -0.0314914696 0
0.119999997 -0.0314914696 0
0.116666667 -0.0314914696 0
0.113333337 -0.0314914696 0
0.109999999 -0.0314914696 0
0.106666669 -0.0314914696 0
0.103333332 -0.0314914696 0
0.100000001 -0.0314914696 0
0.0966666639 -0.0314914696 0
0.0933333337 -0.0314914696 0
0.0900000036 -0.0314914696 0
0.086666666 -0.0314914696 0
0.0833333358 -0.0314914696 0
0.0799999982 -0.0314914696 0
0.0766666681 -0.0314914696 0
0.0733333305 -0.0314914696 0
0.0700000003 -0.0314914696 0
0.0666666701 -0.0314914696 0
0.0633333325 -0.0314914696 0
0.0599999987 -0.0314914696 0
0.0566666685 -0.0314914696 0
0.0533333346 -0.0314914696 0
0.0500000007 -0.0314914696 0
0.0466666669 -0.0314914696 0
0.043333333 -0.0314914696 0
0.0399999991 -0.0314914696 0
0.0366666652 -0.0314914696 0
0.135000005 -0.0343782231 0
0.13166666 -0.0343782231 0
0.12833333 -0.0343782231 0
0.125 -0.0343782231 0
0.12166667 -0.0343782231 0
0.118333332 -0.0343782231 0
0.115000002 -0.0343782231 0
0.111666664 -0.0343782231 0
0.108333334 -0.0343782231 0
0.104999997 -0.0343782231 0
0.101666667 -0.0343782231 0
0.0983333364 -0.0343782231 0
0.0949999988 -0.0343782231 0
0.0916666687 -0.0343782231 0
0.088333331 -0.0343782231 0
0.0850000009 -0.0343782231 0
0.0816666633 -0.0343782231 0
0.0783333331 -0.0343782231 0
0.075000003 -0.0343782231 0
0.0716666654 -0.0343782231 0
0.0683333352 -0.0343782231 0
0.0649999976 -0.0343782231 0
0.0616666675 -0.0343782231 0
0.0583333336 -0.0343782231 0
0.0549999997 -0.0343782231 0
0.0516666658 -0.0343782231 0
0.0483333319 -0.0343782231 0
0.0450000018 -0.0343782231 0
0.0416666679 -0.0343782231 0
0.038333334 -0.0343782231 0
0.0350000001 -0.0343782231 0
0.13333334 -0.0372649729 0
0.129999995 -0.0372649729 0
0.126666665 -0.0372649729 0
0.123333335 -0.0372649729 0
0.119999997 -0.0372649729 0
0.116666667 -0.0372649729 0
0.113333337 -0.0372649729 0
0.109999999 -0.0372649729 0
0.106666669 -0.0372649729 0
0.103333332 -0.0372649729 0
0.100000001 -0.0372649729 0
0.0966666639 -0.0372649729 0
0.0933333337 -0.0372649729 0
0.0900000036 -0.0372649729 0
0.086666666 -0.0372649729 0
0.0833333358 -0.0372649729 0
0.0799999982 -0.0372649729 0
0.0766666681 -0.0372649729 0
0.0733333305 -0.0372649729 0
0.0700000003 -0.0372649729 0
0.0666666701 -0.0372649729 0
0.0633333325 -0.0372649729 0
0.0599999987 -0.0372649729 0
0.0566666685 -0.0372649729 0
0.0533333346 -0.0372649729 0
0.0500000007 -0.0372649729 0
0.0466666669 -0.0372649729 0
0.043333333 -0.0372649729 0
0.0399999991 -0.0372649729 0
0.0366666652 -0.0372649729 0
0.0333333351 -0.0372649729 0
0.13166666 -0.0401517227 0
0.12833333 -0.0401517227 0
0.125 -0.0401517227 0
0.12166667 -0.0401517227 0
0.118333332 -0.0401517227 0
0.115000002 -0.0401517227 0
0.111666664 -0.0401517227 0
[...]
POINT_DATA 961
SCALARS Temp float 1
LOOKUP_TABLE default
443.96241788346975
396.6445331316414
355.8846744135328
322.4605535406004
296.04029690357453
275.8968177511096
261.08010623344336
250.56284266558754
243.3553854749538
238.5839412104814
235.53021551866368
233.63916612176183
232.50501555483834
231.84573316142945
231.47432629169666
231.27248231663881
231.16934605706322
231.12641819147314
231.1286084749122
231.18124576806244
231.31313911034346
231.5860582613402
232.11097319126762
233.07056779881808
234.745558119704
237.53965211132035
241.99498935882139
248.78882659374483
258.7056357785321
272.59159732796445
291.5209893425393
396.6445472434814
350.48886898756973
312.0339781505341
281.0394868745591
256.9327913384936
238.83918730414425
225.73246805761954
216.56647438921289
210.3750822045924
206.33302871071817
203.78056985627083
202.2201339154896
201.2957762753814
200.76493576387915
200.46982275885907
200.3126714132725
200.2368366956682
200.21422428723014
200.23892327558195
200.3269757230812
200.52251808689283
200.9107225852884
201.6375860483354
202.9352152392796
205.1488418597735
208.7587465245355
214.38769222162506
222.7848239235477
234.78105529998663
251.2261302057929
272.59161708923256
355.88462766534144
312.0339558809403
275.9582097146799
247.25370496411404
225.184111743621
208.79294727254805
197.03293995581527
188.88005742395237
183.41595413710724
179.87355780088055
177.65038729441414
176.2986252641886
175.50175344346178
175.04631004687604
174.79484067210626
174.66336467678707
174.60482256288935
174.59878784127585
174.6473961693733
174.77759375821864
175.050049914306
175.57505510165066
176.53493623083065
178.21063149957172
181.00732376614175
185.4708836245024
192.28502154262299
202.23974173034182
216.16369321259276
234.78104605274413
258.7056465925061
322.4604940395892
281.03945379948794
247.25370464539728
220.57941364092935
200.20629883479492
185.15761070464598
174.40760607442533
166.97972686815498
162.0135011062481
158.79898795075547
156.78335462426918
155.55815969607903
154.83588499372954
154.4232540967387
154.19629741970735
154.08004146778435
154.03401830964995
154.04391327527082
154.11946673055533
154.2988645509318
154.65998860142582
155.33857938740738
156.55215539538787
158.62633518203856
162.01726226862232
167.32093046257566
175.25924930304464
186.63363850857797
202.23975801023587
222.78483714655434
248.78881808576713
296.0402402821804
256.93275961542986
225.1840935217098
200.20637334180148
181.17381375431685
167.1330753865296
157.1062288323271
150.17465181250876
145.5350295339221
142.5270062507177
140.6370874227852
139.485789017941
138.80566343743183
138.41671886305807
138.20360558639427
138.09721765379214
138.06187268272458
138.08853834619057
138.19436871483387
138.42886402530215
138.88692264187733
139.7284491845446
141.20265585003023
143.67283252663452
147.6344025200726
153.7168672167989
162.66014517429036
175.25924216930494
192.285016573192
214.38769081554625
241.99499500373304
275.8967595841094
238.83922719078527
208.79299969278443
185.15757766914268
167.13306226272348
153.81476884703963
144.28331058003636
137.67739478268408
133.24343077009362
130.3604130937263
128.54381235858534
127.43414015929858
126.77711853395786
126.40112909872093
126.19622258070983
126.0972150289033
126.07216374896309
126.11684251600552
126.25557493046591
126.548750883292
127.10710113803775
128.11194450891963
129.8389461151706
132.68050040217165
137.15917210202932
143.92332544600288
153.71686370965836
167.32093188373565
185.470890509252
208.75872476670884
237.5396470007152
261.0801173913922
225.73249356163907
197.03298955884688
174.40756702613226
157.10621262500183
144.28330603562804
135.07715112534456
128.67644704059742
124.3670246584191
121.55689256431764
119.78153577666868
118.69456309259182
118.04993378456707
117.68114494030048
117.48163630999154
117.38899006891128
117.37438195893994
117.43800460656628
117.610880235396
117.96331538411648
118.61983611659858
119.77941708302397
121.73810200947716
124.90873273093717
129.8303641140629
137.15916786423807
147.6343937994358
162.0172497564274
181.00732292134532
205.14884007863643
234.7455666320638
250.56285903178085
216.56650277477257
188.8799979164792
166.97969135498067
150.17465228527402
137.67740764999792
128.6764437259769
122.40011503820887
118.16334314970557
115.3942235533572
113.641306617006
112.56638674975287
111.92837452611353
111.563841486763
111.3684102499999
111.28174442179045
111.2777075586902
111.360474262127
111.567023543035
111.97615293579152
112.72361352435603
114.02188868695163
116.18142594013129
119.62793319331446
124.90873021731105
132.68049669047704
143.6728348786899
158.62633665858564
178.210616488451
202.93519572114323
233.07055749016627
243.3553938549222
210.37511676618075
183.41590966385712
162.01348323922258
145.53503258040212
133.24341919070318
124.36702138406717
118.1633527791765
113.96750282584189
111.22070092416457
109.47964990259506
108.4110293714737
107.77664820273094
107.41492886910113
107.22296685888705
107.14207378200028
107.148424119455
107.24964051434485
107.48770724715136
107.9482324046139
108.77547074243093
110.19145064864465
112.51585830330339
116.18142836975066
121.73810315672188
129.83894575592333
141.2026544473211
156.55215100647212
176.53493982574813
201.63759347096828
232.11099221354903
238.5839807481789
206.33296419460444
179.87353361509673
158.798983578117
142.5270190609502
130.36041193361095
121.55689919698555
115.39422093356377
111.22069888210343
108.48569978833132
106.75081284104897
105.6855199042905
105.05330027414199
104.69371304086921
104.50490411921469
104.4295163268668
104.44565815335814
104.56378864868263
104.82984654628144
105.33454400236235
106.22811715377614
107.7387715794496
110.1914488145763
114.021888379805
119.77941662985496
128.11194357582687
139.72844837364647
155.33856108494268
175.57504001101722
200.9107055826531
231.58604993390054
235.5302768461021
203.78051878645206
177.65037297530978
156.78336095847
140.63707545816774
128.54381351812006
119.7815444109265
113.64130716062893
109.47965239991659
106.75081257681528
105.01916264710391
103.95575768326069
103.32503497119163
102.96727197175456
102.78139357550151
102.71110625704321
102.73607103719893
102.86895137509607
103.15861510041833
103.69933686410724
104.64523463850232
106.2281195211065
108.77547133095395
112.72361186934354
118.61983351382834
127.10709989704434
138.88691968306003
154.65998662630443
175.0500553399077
200.52252654801157
231.31312595405174
233.63910492448767
202.22010034377593
176.29862254268528
155.55817241141258
139.48577863981697
127.43414512315084
118.69455759229186
112.56638789764752
108.41102494090724
105.68551978841742
103.95575963060868
102.89366286281349
102.26421421594686
101.90816502612991
101.72502213422237
101.65931512873058
101.69188999461244
101.83702338648173
102.14561327116661
102.71424526734744
103.6993387214114
105.33454530020212
107.94823155017012
111.97615669697727
117.96332035326435
126.54875870968453
138.42885866557972
154.29885821750133
174.77759522748673
200.32697783107326
231.18125975355335
232.50498534834972
201.2957687724946
175.5017702811667
154.8358699223592
138.80566547706297
126.77713249212522
118.0499325077678
111.92837939744163
107.77664622195297
105.05330189069194
103.32503387963588
102.26421354605938
101.63612491982656
101.28183615807905
101.10127903777561
101.03959702641941
101.07849381612317
101.23335950352487
101.55640808963027
102.14561165383282
103.15861459699185
104.82984838453339
107.48770404317146
111.56702237502638
117.6108783573623
126.25557227677784
138.19436689382738
154.11946508664855
174.64740313898542
200.23890041441476
231.1286124545813
231.8457084856832
200.76493343053664
175.04633324993702
154.42324083843152
138.41672317629423
126.40111986187966
117.681145732333
111.56383747120768
107.41492755030794
104.69371543823364
102.96727068777648
101.90816506798741
101.28183598834414
100.9295545140207
100.75155034590419
100.69341030620491
100.73743361647816
100.89974304221418
101.23335924809773
101.83702383624743
102.86895125818103
104.56378980234989
107.24964021898167
111.3604773127131
117.43800965445024
126.11683870451057
138.08853367689497
154.0439079853158
174.59878937297086
200.21422805996562
231.12641728704375
231.47432421405088
200.46984133777434
174.79482586845697
154.19629799044003
138.20362284019998
126.19622071202156
117.48164386985466
111.36840942900051
107.22296679267573
104.50490360711751
102.7813935987815
101.72502261510228
101.10127885305997
100.75155057370455
100.5762815618276
100.52138048896667
100.56956390517057
100.73743344394072
101.07849338742845
101.69188945309189
102.73607108636547
104.44565735956583
107.14842105930559
111.27770650926422
117.37438009506378
126.07216256874916
138.0618717659827
154.034017944747
174.60480581653752
200.23683279670715
231.16933757519155
231.27248265108278
200.31269365366157
174.6633519222759
154.0800452393751
138.09720447697393
126.09721501815608
117.3889833224174
111.28174495023342
107.14207539000749
104.42951588732397
102.71110653464689
101.65931397125875
101.03959711549928
100.69340999000319
100.52138049817704
100.4696877355949
100.52138058875285
100.69341012134899
101.03959754110635
101.65931448986265
102.71110596267367
104.42951757018845
107.14207377867756
111.28174796058852
117.3889871525289
126.0972116713204
138.09721452259598
154.08003684300215
174.6633691732607
200.3126613573405
231.27248413849378
231.169368317208
200.23681344562
174.6048297357451
154.03403876791515
138.06186912212806
126.07217341534222
117.37438057994581
111.2777107514542
107.14842108821973
104.4456594865815
102.73607267447868
101.69188947732998
101.07849448117416
100.73743355849399
100.56956399922015
100.52138065672071
100.57628170616691
100.75155018370074
101.10127904850485
101.72502183085304
102.78139242902151
104.50490368028314
107.22296398855161
111.36840899414516
117.4816358180703
126.19622226434393
138.20360611527695
154.19627781434278
174.79483772476212
200.46980589790567
231.47431843463238
231.12644990663264
200.21420684834303
174.59879934239248
154.0438938718573
138.08853751029136
126.11683274462658
117.43800496849236
111.36047948179169
107.24963753666032
104.5637906557718
102.86895038876536
101.83702312508493
101.23335900023865
100.89974285855072
100.73743377395623
100.6934103442525
100.75155040017289
100.92955475073074
101.28183627162494
101.90816468443693
102.9672716807215
104.69371426234653
107.41492937074736
111.56383975769859
117.6811428720409
126.40112643379331
138.41671541208856
154.42325202191532
175.04630155692078
200.76492729573917
231.84573438659305
231.12857550783238
200.2389129712935
174.64741394415327
154.11944918632693
138.19437186808548
126.2555659315688
117.61087954028672
111.56701898197494
107.48770502840293
104.82984937058491
103.1586136318733
102.14561281475763
101.55640781440214
101.23335931151858
101.07849378689616
101.03959701446593
101.10127886824675
101.28183635981627
101.63612464437125
102.26421323824178
103.32503460754155
105.05330122954572
107.77664775527843
111.92837658108806
118.04993768748523
126.77712565634931
138.80565749081427
154.8358883643806
175.501752696403
201.29577649387403
232.50502630649214
231.18123846173904
200.32698890831423
174.77757579297173
154.2988622541355
138.4288499623062
126.54875190058692
117.96332328883356
111.97615271672241
107.94823284508188
105.33454396214835
103.6993376179274
102.71424485356253
102.14561294049427
101.83702373669215
101.69189001817614
101.65931513222425
101.7250222512272
101.90816515901322
102.26421396441432
102.89366342236922
103.95575881221353
105.68552086472852
108.41102624405686
112.56638566339234
118.69456184051631
127.4341388017809
139.48578664155238
155.55814665151513
176.29861811288254
202.22012619104942
233.63916630470726
231.31313561410894
200.52253649787124
175.0500336630404
154.6599921741163
138.8869108262753
127.10710147056635
118.6198286302347
112.72361336418086
108.7754728620551
106.22811806637544
104.64523651586292
103.69933647993997
103.15861480324466
102.86895128308028
102.73607092733576
102.71110623946613
102.78139372142535
102.96727178914948
103.32503480602153
103.95575809206187
105.01916216890233
106.75081348419964
109.47965038817883
113.64131063378348
119.78153935343224
128.54380780060728
140.63709022363156
156.7833493419157
177.65038563373537
203.7805693463661
235.53021182424538
231.58605660566948
200.9106786390839
175.5750442054605
155.3385494900528
139.72843931536613
128.1119476492822
119.77941118237212
114.0218903666673
110.19144693705739
107.73877000618413
106.22811653333888
105.33454346410055
104.82984716331242
104.56378871877959
104.44565813607335
104.42951637574785
104.50490415812314
104.69371289163716
105.05330059085522
105.68551938867458
106.75081353874725
108.48570056788245
111.22069742013838
115.3942239716229
121.5568949987155
130.36041888289733
142.5270012682358
158.7989849754964
179.87356538402636
206.33303972133592
238.58395712938236
232.11102081330552
201.63758584414288
176.53496287524976
156.552153209384
141.20266781930178
129.83894833852088
121.73811297165226
116.1814371167865
112.51586190182243
110.19145861772601
108.77547505121679
107.94823656194279
107.48771152807936
107.24964463923695
107.14842855666353
107.14207822758753
107.22297095706654
107.41493299432904
107.77665247377736
108.41103286733009
109.47965395835644
111.22070262864862
113.96750751591323
118.16335066429114
124.36701787105996
133.2434295701001
145.5350221146216
162.01349172504777
183.41595030564463
210.3750517412911
243.35536686801677
233.07055130066487
202.93522236739946
178.21061984286345
158.62634017613917
143.6728528715683
132.68050040224298
124.90874241876138
119.6279390366786
116.18143145151939
114.02189495822728
112.72361955652372
111.97616057819569
111.56703031785773
111.36048077860522
111.27771405480932
111.28175083632993
111.36841657950866
111.56384799435092
111.92838043383371
112.56639327271118
113.64131275013096
115.39422789089264
118.16334986217275
122.40011589678078
128.67645157193593
137.67739568548942
150.17465358824177
166.97971527450684
188.88005411218506
216.56646741448776
250.56284287806312
234.74555241401663
205.14885990023157
181.0073191743936
162.01726146237107
147.63439302805426
137.15917755609425
129.83037323525625
124.90873543764454
121.73811110756616
119.7794214726937
118.61984036723393
117.96331983021224
117.61088444885226
117.43800947208028
117.37438681259812
117.38899455485043
117.48164101145925
117.68114967885631
118.04993808595533
118.69456789943946
119.78153933015005
121.55689834602272
124.36702620085175
128.67644844536977
135.07716319080615
144.28330323590347
157.10622517504515
174.40760524823776
197.03293551423553
225.7324670306213
261.08011935843643
237.53965530799903
208.7587095175687
185.47087836568986
167.3209397150212
153.71685601946012
143.92332981629218
137.15916942333027
132.6804980348362
129.83894510958922
128.11194343954074
127.10710254916467
126.54875132347566
126.25557501812621
126.11684256202334
126.07216370159703
126.09721508937314
126.19622276772054
126.40112905031708
126.77711912076578
127.43414051818704
128.54381205088518
130.36041487684952
133.2434291722998
137.67739896631122
144.28330096212795
153.81477010649346
167.13308175889966
185.15762256429997
208.7929629901749
238.83919938034023
275.8967599403303
241.9949919655096
214.38766449161315
192.28501056906072
175.25922286847003
162.66013971969727
153.71686198080656
147.6343899087187
143.67282841801827
141.20264621617193
139.72843948964643
138.88691322954554
138.4288542895252
138.19435999361042
138.08852963325552
138.06186352868133
138.09720889971143
138.20359677919342
138.41670980241892
138.805654861455
139.48577991040733
140.63708001499486
142.52699624753254
145.53502023439813
150.17465054782897
157.1062164500415
167.13307484495334
181.17383266593384
200.20631071455878
225.18404811138367
256.93272990675285
296.0402340606633
248.78883158555317
222.7848528821097
202.23979525962426
186.63365671214544
175.25928016769302
167.32095215673928
162.01728374979987
158.6263577545379
156.55217760094266
155.33860459366323
154.660012622533
154.29888802475907
154.11949006541215
154.04393644855662
154.03404171748323
154.08006488657787
154.19632069728866
154.42327785050392
154.83590822263764
155.55818242341314
156.7833784382169
158.79900869083403
162.01352491866837
166.97973855324702
174.4076236748222
185.15763917348463
200.20634264507174
220.57937849470272
247.2536651116454
281.039423332809
322.46049734886594
258.7056579557647
234.78107957281543
216.16370969757085
202.23977168249831
192.2850504517153
185.47090330511904
181.00735254122569
178.21065378478463
176.53495824195994
175.57507726266132
175.05007150488612
174.77761654685523
174.64741897025309
174.59881012881496
174.60484535081926
174.6633872677226
174.79486296775505
175.0463325853683
175.50177553061937
176.29864818013897
177.65040772015644
179.87357823885014
183.41597923253457
188.88007137891677
197.0329603489938
208.79297887064783
225.18406591692693
247.2536640827492
275.95816832466426
312.03392028225727
355.8846226149355
272.59162011094685
251.22615361317796
234.7810578387863
222.7848397780538
214.38769851801376
208.75875278854528
205.14884939138747
202.93522254112585
201.63759694772548
200.91073218597478
200.52252694340808
200.32698445985406
200.23893185567334
200.214233290805
200.23684563782138
200.3126803119055
200.46983213117593
200.7649445564255
201.2957849521127
202.22014349772232
203.78057708296976
206.33303831762265
210.3750819671558
216.56647871757843
225.7324803285231
238.83921092031898
256.9327414517816
281.03942630464843
312.0339125310548
350.4888075783872
396.6444500751603
291.52100564794716
272.5915915610314
258.7056431413709
248.7888329869431
241.99498586869782
237.5396581871814
234.74555733522928
233.07056775591204
232.11097323219133
231.58605682809605
231.313139281641
231.18124582271744
231.12860843305853
231.12641849225284
231.169346132325
231.27248232788952
231.47432598481282
231.84573312298104
232.50501597945492
233.63916448190182
235.53021403465934
238.5839439036162
243.35537904392308
250.56284090140053
261.08011212646113
275.8967537661584
296.0402366876056
322.4604860379762
355.8845981925192
396.6444324673143
443.9620117484676
