# vtk DataFile Version 2.0
Unstructured Grid Example
ASCII
DATASET UNSTRUCTURED_GRID

POINTS 961 float
0.150000006 -0.00839745998 0
0.146666661 -0.00839745998 0
0.143333331 -0.00839745998 0
0.140000001 -0.00839745998 0
0.13666667 -0.00839745998 0
0.13333334 -0.00839745998 0
0.129999995 -0.00839745998 0
0.126666665 -0.00839745998 0
0.123333335 -0.00839745998 0
0.119999997 -0.00839745998 0
0.116666667 -0.00839745998 0
0.113333337 -0.00839745998 0
0.109999999 -0.00839745998 0
0.106666669 -0.00839745998 0
0.103333332 -0.00839745998 0
0.100000001 -0.00839745998 0
0.0966666639 -0.00839745998 0
0.0933333337 -0.00839745998 0
0.0900000036 -0.00839745998 0
0.086666666 -0.00839745998 0
0.0833333358 -0.00839745998 0
0.0799999982 -0.00839745998 0
0.0766666681 -0.00839745998 0
0.0733333305 -0.00839745998 0
0.0700000003 -0.00839745998 0
0.0666666701 -0.00839745998 0
0.0633333325 -0.00839745998 0
0.0599999987 -0.00839745998 0
0.0566666685 -0.00839745998 0
0.0533333346 -0.00839745998 0
0.0500000007 -0.00839745998 0
0.148333326 -0.0112842107 0
0.144999996 -0.0112842107 0
0.141666666 -0.0112842107 0
0.138333336 -0.0112842107 0
0.135000005 -0.0112842107 0
0.13166666 -0.0112842107 0
0.12833333 -0.0112842107 0
0.125 -0.0112842107 0
0.12166667 -0.0112842107 0
0.118333332 -0.0112842107 0
0.115000002 -0.0112842107 0
0.111666664 -0.0112842107 0
0.108333334 -0.0112842107 0
0.104999997 -0.0112842107 0
0.101666667 -0.0112842107 0
0.0983333364 -0.0112842107 0
0.0949999988 -0.0112842107 0
0.0916666687 -0.0112842107 0
0.088333331 -0.0112842107 0
0.0850000009 -0.0112842107 0
0.0816666633 -0.0112842107 0
0.0783333331 -0.0112842107 0
0.075000003 -0.0112842107 0
0.0716666654 -0.0112842107 0
0.0683333352 -0.0112842107 0
0.0649999976 -0.0112842107 0
0.0616666675 -0.0112842107 0
0.0583333336 -0.0112842107 0
0.0549999997 -0.0112842107 0
0.0516666658 -0.0112842107 0
0.0483333319 -0.0112842107 0
0.146666661 -0.0141709624 0
0.143333331 -0.0141709624 0
0.140000001 -0.0141709624 0
0.13666667 -0.0141709624 0
0.13333334 -0.0141709624 0
0.129999995 -0.0141709624 0
0.126666665 -0.0141709624 0
0.123333335 -0.0141709624 0
0.119999997 -0.0141709624 0
0.116666667 -0.0141709624 0
0.113333337 -0.0141709624 0
0.109999999 -0.0141709624 0
0.106666669 -0.0141709624 0
0.103333332 -0.0141709624 0
0.100000001 -0.0141709624 0
0.0966666639 -0.0141709624 0
0.0933333337 -0.0141709624 0
0.0900000036 -0.0141709624 0
0.086666666 -0.0141709624 0
0.0833333358 -0.0141709624 0
0.0799999982 -0.0141709624 0
0.0766666681 -0.0141709624 0
0.0733333305 -0.0141709624 0
0.0700000003 -0.0141709624 0
0.0666666701 -0.0141709624 0
0.0633333325 -0.0141709624 0
0.0599999987 -0.0141709624 0
0.0566666685 -0.0141709624 0
0.0533333346 -0.0141709624 0
0.0500000007 -0.0141709624 0
0.0466666669 -0.0141709624 0
0.144999996 -0.0170577131 0
0.141666666 -0.0170577131 0
0.138333336 -0.0170577131 0
0.135000005 -0.0170577131 0
0.13166666 -0.0170577131 0
0.12833333 -0.0170577131 0
0.125 -0.0170577131 0
0.12166667 -0.0170577131 0
0.118333332 -0.0170577131 0
0.115000002 -0.0170577131 0
0.111666664 -0.0170577131 0
0.108333334 -0.0170577131 0
0.104999997 -0.0170577131 0
0.101666667 -0.0170577131 0
0.0983333364 -0.0170577131 0
0.0949999988 -0.0170577131 0
0.0916666687 -0.0170577131 0
0.088333331 -0.0170577131 0
0.0850000009 -0.0170577131 0
0.0816666633 -0.0170577131 0
0.0783333331 -0.0170577131 0
0.075000003 -0.0170577131 0
0.0716666654 -0.0170577131 0
0.0683333352 -0.0170577131 0
0.0649999976 -0.0170577131 0
0.0616666675 -0.0170577131 0
0.0583333336 -0.0170577131 0
0.0549999997 -0.0170577131 0
0.0516666658 -0.0170577131 0
0.0483333319 -0.0170577131 0
0.0450000018 -0.0170577131 0
0.143333331 -0.0199444648 0
0.140000001 -0.0199444648 0
0.13666667 -0.0199444648 0
0.13333334 -0.0199444648 0
0.129999995 -0.0199444648 0
0.126666665 -0.0199444648 0
0.123333335 -0.0199444648 0
0.119999997 -0.0199444648 0
0.116666667 -0.0199444648 0
0.113333337 -0.0199444648 0
0.109999999 -0.0199444648 0
0.106666669 -0.0199444648 0
0.103333332 -0.0199444648 0
0.100000001 -0.0199444648 0
0.0966666639 -0.0199444648 0
0.0933333337 -0.0199444648 0
0.0900000036 -0.0199444648 0
0.086666666 -0.0199444648 0
0.0833333358 -0.0199444648 0
0.0799999982 -0.0199444648 0
0.0766666681 -0.0199444648 0
0.0733333305 -0.0199444648 0
0.0700000003 -0.0199444648 0
0.0666666701 -0.0199444648 0
0.0633333325 -0.0199444648 0
0.0599999987 -0.0199444648 0
0.0566666685 -0.0199444648 0
0.0533333346 -0.0199444648 0
0.0500000007 -0.0199444648 0
0.0466666669 -0.0199444648 0
0.043333333 -0.0199444648 0
0.141666666 -0.0228312165 0
0.138333336 -0.0228312165 0
0.135000005 -0.0228312165 0
0.13166666 -0.0228312165 0
0.12833333 -0.0228312165 0
0.125 -0.0228312165 0
0.12166667 -0.0228312165 0
0.118333332 -0.0228312165 0
0.115000002 -0.0228312165 0
0.111666664 -0.0228312165 0
0.108333334 -0.0228312165 0
0.104999997 -0.0228312165 0
0.101666667 -0.0228312165 0
0.0983333364 -0.0228312165 0
0.0949999988 -0.0228312165 0
0.0916666687 -0.0228312165 0
0.088333331 -0.0228312165 0
0.0850000009 -0.0228312165 0
0.0816666633 -0.0228312165 0
0.0783333331 -0.0228312165 0
0.075000003 -0.0228312165 0
0.0716666654 -0.0228312165 0
0.0683333352 -0.0228312165 0
0.0649999976 -0.0228312165 0
0.0616666675 -0.0228312165 0
0.0583333336 -0.0228312165 0
0.0549999997 -0.0228312165 0
0.0516666658 -0.0228312165 0
0.0483333319 -0.0228312165 0
0.0450000018 -0.0228312165 0
0.0416666679 -0.0228312165 0
0.140000001 -0.0257179681 0
0.13666667 -0.0257179681 0
0.13333334 -0.0257179681 0
0.129999995 -0.0257179681 0
0.126666665 -0.0257179681 0
0.123333335 -0.0257179681 0
0.119999997 -0.0257179681 0
0.116666667 -0.0257179681 0
0.113333337 -0.0257179681 0
0.109999999 -0.0257179681 0
0.106666669 -0.0257179681 0
0.103333332 -0.0257179681 0
0.100000001 -0.0257179681 0
0.0966666639 -0.0257179681 0
0.0933333337 -0.0257179681 0
0.0900000036 -0.0257179681 0
0.086666666 -0.0257179681 0
0.0833333358 -0.0257179681 0
0.0799999982 -0.0257179681 0
0.0766666681 -0.0257179681 0
0.0733333305 -0.0257179681 0
0.0700000003 -0.0257179681 0
0.0666666701 -0.0257179681 0
0.0633333325 -0.0257179681 0
0.0599999987 -0.0257179681 0
0.0566666685 -0.0257179681 0
0.0533333346 -0.0257179681 0
0.0500000007 -0.0257179681 0
0.0466666669 -0.0257179681 0
0.043333333 -0.0257179681 0
0.0399999991 -0.0257179681 0
0.138333336 -0.0286047198 0
0.135000005 -0.0286047198 0
0.13166666 -0.0286047198 0
0.12833333 -0.0286047198 0
0.125 -0.0286047198 0
0.12166667 -0.0286047198 0
0.118333332 -0.0286047198 0
0.115000002 -0.0286047198 0
0.111666664 -0.0286047198 0
0.108333334 -0.0286047198 0
0.104999997 -0.0286047198 0
0.101666667 -0.0286047198 0
0.0983333364 -0.0286047198 0
0.0949999988 -0.0286047198 0
0.0916666687 -0.0286047198 0
0.088333331 -0.0286047198 0
0.0850000009 -0.0286047198 0
0.0816666633 -0.0286047198 0
0.0783333331 -0.0286047198 0
0.075000003 -0.0286047198 0
0.0716666654 -0.0286047198 0
0.0683333352 -0.0286047198 0
0.0649999976 -0.0286047198 0
0.0616666675 -0.0286047198 0
0.0583333336 -0.0286047198 0
0.0549999997 -0.0286047198 0
0.0516666658 -0.0286047198 0
0.0483333319 -0.0286047198 0
0.0450000018 -0.0286047198 0
0.0416666679 -0.0286047198 0
0.038333334 -0.0286047198 0
0.13666667 -0.0314914696 0
0.13333334 -0.0314914696 0
0.129999995 -0.0314914696 0
0.126666665 -0.0314914696 0
0.123333335 -0.0314914696 0
0.119999997 -0.0314914696 0
0.116666667 -0.0314914696 0
0.113333337 -0.0314914696 0
0.109999999 -0.0314914696 0
0.106666669 -0.0314914696 0
0.103333332 -0.0314914696 0
0.100000001 -0.0314914696 0
0.0966666639 -0.0314914696 0
0.0933333337 -0.0314914696 0
0.0900000036 -0.0314914696 0
0.086666666 -0.0314914696 0
0.0833333358 -0.0314914696 0
0.0799999982 -0.0314914696 0
0.0766666681 -0.0314914696 0
0.0733333305 -0.0314914696 0
0.0700000003 -0.0314914696 0
0.0666666701 -0.0314914696 0
0.0633333325 -0.0314914696 0
0.0599999987 -0.0314914696 0
0.0566666685 -0.0314914696 0
0.0533333346 -0.0314914696 0
0.0500000007 -0.0314914696 0
0.0466666669 -0.0314914696 0
0.043333333 -0.0314914696 0
0.0399999991 -0.0314914696 0
0.0366666652 -0.0314914696 0
0.135000005 -0.0343782231 0
0.13166666 -0.0343782231 0
0.12833333 -0.0343782231 0
0.125 -0.0343782231 0
0.12166667 -0.0343782231 0
0.118333332 -0.0343782231 0
0.115000002 -0.0343782231 0
0.111666664 -0.0343782231 0
0.108333334 -0.0343782231 0
0.104999997 -0.0343782231 0
0.101666667 -0.0343782231 0
0.0983333364 -0.0343782231 0
0.0949999988 -0.0343782231 0
0.0916666687 -0.0343782231 0
0.088333331 -0.0343782231 0
0.0850000009 -0.0343782231 0
0.0816666633 -0.0343782231 0
0.0783333331 -0.0343782231 0
0.075000003 -0.0343782231 0
0.0716666654 -0.0343782231 0
0.0683333352 -0.0343782231 0
0.0649999976 -0.0343782231 0
0.0616666675 -0.0343782231 0
0.0583333336 -0.0343782231 0
0.0549999997 -0.0343782231 0
0.0516666658 -0.0343782231 0
0.0483333319 -0.0343782231 0
0.0450000018 -0.0343782231 0
0.0416666679 -0.0343782231 0
0.038333334 -0.0343782231 0
0.0350000001 -0.0343782231 0
0.13333334 -0.0372649729 0
0.129999995 -0.0372649729 0
0.126666665 -0.0372649729 0
0.123333335 -0.0372649729 0
0.119999997 -0.0372649729 0
0.116666667 -0.0372649729 0
0.113333337 -0.0372649729 0
0.109999999 -0.0372649729 0
0.106666669 -0.0372649729 0
0.103333332 -0.0372649729 0
0.100000001 -0.0372649729 0
0.0966666639 -0.0372649729 0
0.0933333337 -0.0372649729 0
0.0900000036 -0.0372649729 0
0.086666666 -0.0372649729 0
0.0833333358 -0.0372649729 0
0.0799999982 -0.0372649729 0
0.0766666681 -0.0372649729 0
0.0733333305 -0.0372649729 0
0.0700000003 -0.0372649729 0
0.0666666701 -0.0372649729 0
0.0633333325 -0.0372649729 0
0.0599999987 -0.0372649729 0
0.0566666685 -0.0372649729 0
0.0533333346 -0.0372649729 0
0.0500000007 -0.0372649729 0
0.0466666669 -0.0372649729 0
0.043333333 -0.0372649729 0
0.0399999991 -0.0372649729 0
0.0366666652 -0.0372649729 0
0.0333333351 -0.0372649729 0
0.13166666 -0.0401517227 0
0.12833333 -0.0401517227 0
0.125 -0.0401517227 0
0.12166667 -0.0401517227 0
0.118333332 -0.0401517227 0
0.115000002 -0.0401517227 0
0.111666664 -0.0401517227 0
[...]
POINT_DATA 961
SCALARS Temp float 1
LOOKUP_TABLE default
545.790576891137
503.24650216388505
464.40754049283026
429.912382880912
399.8684184755636
374.19699755354065
352.67631571292054
334.97723226314855
320.69758227901923
309.3961992139148
300.62311015379953
293.94438736964054
288.96110918128477
285.32206774753615
282.7308478483742
280.94871760836764
279.794480719873
279.1428990290334
278.92280974358766
279.1158637872542
279.75628837463455
280.9316083759441
282.7837529639928
285.5096475984819
289.35998501483135
294.6351433492366
301.67726047122096
310.85850007950864
322.56763607477785
337.20261882042115
355.32113978661073
503.2465141268469
460.82860230136606
422.8530178547808
389.447958235237
360.61461276193575
336.1940316046963
315.9002876752132
299.35438878613405
286.1197301650509
275.73487216610897
267.7421757993974
261.7103335306973
257.2508527807187
254.0281903310818
251.76496415156308
250.24326020782573
249.3037145781491
248.8436649328029
248.8154692998574
249.22571812407037
250.1355021095498
251.66141948630684
253.97657729903244
257.31041257474345
261.946062209872
268.21424707362314
276.48281040081883
287.1425719841159
300.59098132055715
317.2215912869367
337.20263835598246
464.40749373154205
422.85299364839454
385.940980965857
353.7344881155493
326.14551585251786
302.9477895667666
283.80464665989035
268.3019483865739
255.98241652091772
246.37672263113552
239.02947548657173
233.51941144321762
229.47325370537905
226.573765304299
224.56341493258708
223.24475030497044
222.47914787641832
222.18507074057348
222.33684299049474
222.9643862572112
224.15389813059244
226.04892566038242
228.8509141701631
232.8178933731755
238.2601383183885
245.5315894038709
255.0164498343805
267.11091113527164
282.1985163707005
300.5909726033148
322.5676482417944
429.91231870284645
389.4479189048442
353.73448467041976
322.76886781592833
296.39964235845815
274.3503620927401
256.2487159524995
241.65982284438738
230.11822404484357
221.15668581286056
214.32952350871096
209.230332659695
205.50352103586914
202.85092105026106
201.034295955786
199.87535499879712
199.25452101931552
199.1095705853496
199.4349442222861
200.28196051056244
201.75971220886487
204.0359594198369
207.33687995396878
211.94436051981276
218.1896320128426
226.44198401464132
237.09221119944746
250.52971850187512
267.1109288506848
287.1425851631364
310.85849168678084
399.86834998769194
360.6145696971301
326.1454881976823
296.39974016510723
271.1779106590922
250.1690533725348
232.9801931225804
219.16822557217432
208.26975926759474
199.8269948369997
193.40878916978798
188.62603146380744
185.14151148852827
182.67544269824108
181.0074393761093
179.97650992062376
179.4801112417095
179.47331962660832
179.96864362487878
181.03658386400787
182.80653680142387
185.46722726372596
189.26540472792365
194.50160249973106
201.52158787295986
210.70258741392627
222.43392567573665
237.09220331857782
255.01644406173438
276.4828099513524
301.6772652353761
374.196920893237
336.1940838981966
302.94785766802266
274.3503233218293
250.16903698726975
230.0725828264227
213.66012425308858
200.49056058022552
190.10993810118575
182.07475497513113
175.97089025362465
171.4270608880995
168.1237496250922
165.79796221316448
164.24518525066966
163.31959010234792
162.93354986061246
163.0573384096593
163.71935553886576
165.00685238970976
167.06664587733547
170.10485576227003
174.38444352458524
180.21935817795588
187.96396668604476
197.99740240828268
210.70258241943043
226.44198570795342
245.5315956232467
268.2142240468771
294.63514158429535
352.6763330792866
315.9003206548392
283.80470658123966
256.2486681338156
232.98016988991552
213.66011605610558
197.88978122832597
185.23761254579105
175.26377140895082
167.54154302417874
161.67434056294744
157.30798155892825
154.1389675045481
151.9190475931058
150.4573757354051
149.62108856633984
149.33536291074697
149.58355679908811
150.4077184858256
151.90930649183022
154.24952542187967
157.64823879694433
162.38037461731133
168.76852431148228
177.1708343666607
187.96396092779418
201.521576386465
218.18961583193723
238.2601402142426
261.94606158232574
289.3599926796359
334.9772503575139
299.35442014139835
268.3018762041586
241.65977453490578
219.1682312328762
200.49058169964525
185.23760596315125
172.99194478393022
163.3303646267496
155.84350302860358
150.15140851111067
145.91537328752437
142.84576400175578
140.70682626917852
139.319157028527
138.56075918137105
138.3675829937503
138.73400556754333
139.71348362905275
141.41912606717645
144.023520791892
147.75682813384566
152.902095186623
159.78656063597813
168.76852004165707
180.21935140573268
194.5016071103487
211.9443627769136
232.81787746412803
257.3103924133313
285.5096358363189
320.69759086954883
286.1197659339416
255.9823756904544
230.1182080429216
208.2697656971964
190.10991870384046
175.26376360998867
163.33038567219228
153.90372076990025
146.5908443613401
141.02679340162237
136.88612591156834
133.89080884840885
131.81536171466658
130.48972192477407
129.8008152333753
129.6934651388486
130.17110822353027
131.29645889817758
133.19182359336634
136.03836791991475
140.07347817409632
145.5850920648844
152.90209950919
162.38037867063426
174.38444484147098
189.26540362463237
207.3368751404726
228.85091689162002
253.976586760168
282.78377243197906
309.3962472125623
275.7348075780082
246.37669460531905
221.15667727851388
199.82700589919668
182.07475424897754
167.54155391644576
155.84349528043492
146.5908384368933
139.40525592213834
133.93465260813886
129.86449611523867
126.9261313752984
124.90227704991317
123.63034236698495
123.00442476055353
122.97648668511566
123.5572136158139
124.81658517229636
126.88386971628825
129.94637413462522
134.24613667154466
140.07347465461677
147.7568281856534
157.64823750709684
170.10485320041403
185.46722388587722
204.03593928482124
226.04891018404584
251.6614022470693
280.93160039445854
300.62318257408987
267.7421234690203
239.0294553530983
214.3295350150606
193.40877311104452
175.97089091452258
161.6743526893572
150.15141118758467
141.0267997872946
133.9346515715562
128.533334616096
124.5170077596682
121.62435157412133
119.64443279143845
118.42050113155133
117.85228099996831
117.89734708114588
118.57201763924323
119.95177517003783
122.17092041968782
125.42089292235181
129.94638107185276
136.038369143478
144.02351757429452
154.2495203080985
167.06664568607277
182.8065343673065
201.7597098732675
224.1539037083731
250.13550967393482
279.75627627196224
293.94432700220176
261.71030349813594
233.51941056404314
209.23034804447394
188.62601625737966
171.42707146758616
157.30797316835586
145.9153759654703
136.88611577197176
129.86449521165244
124.5170152556603
120.54448716663465
117.69111095586581
115.750749972396
114.57110155448369
114.05619036740477
114.16789375087659
114.92677786288145
116.41234571156893
118.76238847142771
122.17092642995404
126.88387360484437
133.19182163328918
141.41913507356944
151.909316148857
165.00686419072952
181.0365772819048
200.2819529229697
222.96438893613416
249.225721157531
279.1158775657688
288.96107589408075
257.2508414851214
229.47326813257482
205.50350261459573
185.1415138846385
168.12376859227024
154.13896425059735
142.84577115902616
133.89080536971136
126.92613606496435
121.62434754598364
117.69110820502904
114.87457232979834
112.97210636794057
111.83468722318553
111.3695637566177
111.54183063661321
112.3751847592767
113.9519797795625
116.41233921382985
119.951773297329
124.81659078330304
131.29645200523572
139.7134813660902
150.4077151797288
163.71935140245972
179.96864173418956
199.4349425626041
222.33685055746395
248.81544651064988
278.9228140379821
285.3220378788775
254.02818810881794
226.57379032293008
202.8509046534373
182.67544825084195
165.7979465726535
151.91905037077746
140.7068187972632
131.81535907690284
124.90228341362722
119.64442834273927
115.75075106412459
112.97210566802654
111.10830555869099
110.0126639696917
109.59481295745321
109.8222253656163
110.72088949374842
112.37518365027991
114.92677986532482
118.57201775128088
123.55721722465286
130.17110767070722
138.73401141357567
149.58356570975633
163.05733323186277
179.47331385190418
199.1095645038822
222.1850727340467
248.84366857048275
279.14289777440945
282.73084285631177
251.76498077962486
224.5633963411817
201.03429459570583
181.00746184334534
164.24518272829135
150.4573876650907
139.31915513473666
130.48972125342698
123.6303410692085
118.42050155391973
114.57110352006669
111.83468629025144
110.01266538403344
108.96001457301449
108.5881283748576
108.86628976285273
109.8222244875828
111.54182872503316
114.16789179912217
117.897347335718
122.97648453711707
129.69345832953215
138.3675812575995
149.3353604243579
162.93354844878337
179.48011002304273
199.25452075670037
222.47912968915378
249.30371126120718
279.7944729423946
280.9487163592811
250.24328121005308
223.24473732211825
199.8753603065013
179.9764921398979
163.3195904704566
149.62107671696202
138.56076092940938
129.800819383187
123.00442413165798
117.85228228002643
114.05618612929689
111.36956452606793
109.59481130870945
108.5881284617714
108.26230377702709
108.58812899503515
109.59481203952377
111.36956631223102
114.05618811826308
117.85228022559033
123.00442835881185
129.80081565001018
138.56076646529667
149.6210831938147
163.31958509058214
179.97650565524552
199.87535030169585
223.24475549455357
250.24324870353058
280.9487185812978
279.79450322052537
249.3036910998868
222.47915552709907
199.2545447821405
179.48010689389534
162.9335642208368
149.3353615386617
138.36759010059947
129.69345856764974
122.97649084996428
117.8973527707928
114.16789216184205
111.54183402674725
109.82222521564357
108.86629035074444
108.5881294002988
108.96001543578174
110.01266324981833
111.83468742746388
114.57110078826537
118.42049803389287
123.63034207790895
130.4897153202387
139.3191552087354
150.4573754344831
164.24518608038213
181.00744173210487
201.03427225947718
224.56341240986106
251.76494751904696
282.73084211043954
279.1429303224387
248.84364791682978
222.18508371498626
199.10954792095768
179.47331961764192
163.05732482164623
149.5835585455942
138.73401578471928
130.17110215855436
123.5572197927095
118.57201503359835
114.92677742795351
112.37518247191332
110.72088855103301
109.82222624886748
109.59481313967845
110.01266430336845
111.10830677443714
112.97210702053248
115.75074945238345
119.64443146558052
124.902280284936
131.81536324230652
140.706823630186
151.91904544395868
165.79795716052223
182.67543852647458
202.85091840545383
226.57375723535398
254.02818399560812
285.3220678128476
278.9227774895495
248.81545925387934
222.33686226573246
199.43492499128502
179.96864849129238
163.71934285572829
150.40771792424283
139.71347506437846
131.29645472790435
124.81659353521725
119.95177037847425
116.41234377337402
113.95197854346412
112.37518380776692
111.54183050146558
111.36956376561939
111.8346860046019
112.9721074241343
114.87457101333105
117.69110683002486
121.62435017875146
126.92613413947556
133.89080913256916
142.84576609617076
154.1389732785785
168.12375924122463
185.14150384602004
205.5035267219224
229.47324962692062
257.25085143207843
288.9611195423373
279.11585735476626
249.22573278036097
222.96436870955276
200.28195877586657
181.03656670972896
165.00685526208227
151.90932123089576
141.41912820727507
133.1918248197707
126.88387012632185
122.17092331108213
118.76238682370482
116.41234432365928
114.92677963809807
114.16789365295003
114.05619036715031
114.57110229954435
115.75075080140937
117.69110973260274
120.54448940450747
124.51701270174382
129.86449830830915
136.88611930358448
145.91537161556514
157.30798139847016
171.4270625208074
188.62602715078
209.2303177055441
233.51940559122306
261.7103295291233
293.9443826907657
279.7562869363038
250.13552054737528
224.1538822587922
201.75971685736357
182.80652393549576
167.06664880932624
154.24951260259078
144.023520928798
136.0383725903608
129.9463774269046
125.42089889671024
122.17091882374687
119.95177387757435
118.57201719444215
117.89734671614531
117.85228061888112
118.4205018104178
119.64443181888194
121.62435057901504
124.51700962756568
128.53333300259735
133.93465433521126
141.0267954804071
150.15141826023364
161.6743444469701
175.97088211187636
193.40879368349073
214.3295192260158
239.0294668999283
267.7421703331453
300.6231028969224
280.9316087416052
251.66137692424556
226.04891588727574
204.03592670701357
185.4672133793498
170.1048591761158
157.64822942451173
147.75683214874044
140.07347049674337
134.24613293709277
129.9463720556779
126.88386789714741
124.81658785117969
123.55721332821315
122.97648643171765
123.00442514621061
123.6303427935289
124.9022761751634
126.9261329486018
129.86449409657354
133.93465492681614
139.40525848252588
146.590834754284
155.84350177472191
167.541546201724
182.07476356567082
199.8269800839579
221.15667538703744
246.37672494498253
275.73487991387356
309.3962114780606
282.7838022537516
253.97658278529596
228.85094382145772
207.33688099293147
189.26542370008036
174.38445099950806
162.3803967616759
152.90211680176083
145.58510003635595
140.0734972765938
136.03837719857393
133.1918327790777
131.2964686374717
130.17111769700966
129.69347539440406
129.8008253109465
130.4897305967168
131.81537005549137
133.8908186959173
136.88613255350882
141.02680266505354
146.59084715253246
153.90373162961407
163.33038266253678
175.26375889641446
190.10993771512207
208.2697524069157
230.11821919871272
255.98242137012483
286.1196948801402
320.6975611498749
285.5096320686461
257.31042168526193
232.81788437073556
211.94437045473404
194.5016321847308
180.2193593420922
168.76854089138723
159.78657116234083
152.90210552869766
147.75683973566657
144.02353221717044
141.4191429087651
139.7134962712663
138.73401794087712
138.36759569504332
138.56077164467638
139.31916850414055
140.70683905932
142.845773696549
145.9153857405088
150.15142032351773
155.84350905888246
163.33037780842457
172.9919449621311
185.23761916906386
200.49056318455393
219.16823247605382
241.65980380757898
268.30194180242273
299.3543808386364
334.9772360032719
289.35998192325155
261.9460824516224
238.26013853851495
218.18963091211464
201.52157663410227
187.96397544041366
177.1708485953549
168.7685282922516
162.38039194853954
157.64824501128552
154.24953173475998
151.90931353851641
150.40772534685746
149.58356546160906
149.3353708145753
149.62109564877167
150.45738278335207
151.91905575711803
154.13897345488556
157.3079897635895
161.67434397205884
167.54155323765204
175.26377052010383
185.2376107261217
197.88979995434278
213.66010709223065
232.98018272534654
256.2487114679703
283.8046402843116
315.90028913349033
352.6763360967184
294.6351504314073
268.21420993511816
245.5315838343665
226.44199426066712
210.702573307877
197.99740846473543
187.96396193407796
180.2193538346855
174.3844409446887
170.10485333836908
167.06665019511166
165.00685200012728
163.71935503617905
163.0573383771212
162.93354979691722
163.3195897816833
164.24518601312033
165.79796100965814
168.12375096112197
171.42706207442453
175.97088742872518
182.07475859932066
190.10993151920758
200.49056565030796
213.66010228936432
230.07257835397508
250.16905707096612
274.3503744879124
302.94780837409417
336.1940494850549
374.1969197873231
301.6772605734288
276.48278351426416
255.0164367745815
237.09218080767738
222.43391919082765
210.7025810386117
201.5215706066209
194.50160025517928
189.26539050796
185.46721333138845
182.80652375430915
181.03657071564078
179.9686330528276
179.47330793444482
179.48009916717652
179.97649807917335
181.00742843662945
182.67543031680503
185.14150118566013
188.62601771633624
193.4087813584951
199.82697812311747
208.26974222984154
219.16822634571605
232.98016941450945
250.16904823193082
271.17793105526175
296.39965607051784
326.1454292447323
360.61453225651985
399.8683384883919
310.8585074253009
287.1426033627475
267.11096838829354
250.52973893616308
237.09224698470717
226.44200780933502
218.18965590766643
211.94438589283092
207.33690528125587
204.03599201285297
201.7597395298417
200.28198756565246
199.43497158257588
199.1095978001084
199.25454816577397
199.87538268355073
201.03432193762325
202.85094876189632
205.5035480861894
209.23035586836912
214.32955130777341
221.15670378705752
230.11825051732993
241.65982347838718
256.2487292359445
274.35039351037835
296.3996964875559
322.7688212873933
353.73444042087726
389.4478895983846
429.91232347095587
322.56766055463294
300.59100604824835
282.1985330330569
267.1109433027841
255.0164814006196
245.53160918953438
238.26017337248263
232.81791581318154
228.85093674242069
226.0489489433401
224.1539211239909
222.96441203816272
222.33686728590786
222.18509469755105
222.47917194690612
223.24477476758153
224.56343792739273
226.57378959529396
229.4732746057381
233.5194365961316
239.02949193077754
246.37673753121666
255.98244526227694
268.30195273062367
283.8046643239537
302.94782569958005
326.1454492163993
353.7344354110077
385.94093511935336
422.85295814710264
464.40748880079656
337.2026416825182
317.2216137160608
300.5909832193462
287.142588806563
276.48281507611364
268.21425185973317
261.94606847406106
257.31041891131656
253.97659126635983
251.66142811160898
250.1355104026763
249.22572677328893
248.81547790367867
248.84367377810977
249.30372385624432
250.2432682178593
251.76497377495045
254.0281994489683
257.2508588350729
261.71034376868465
267.7421774555795
275.7348814030874
286.1197160650861
299.35438557934805
315.9002995843659
336.19406218923837
360.61454665345104
389.44788767546663
422.8529491869669
460.82854190658577
503.2464234868827
355.3211553518551
337.20261277841325
322.56764433950065
310.85850752063743
301.6772558053581
294.635153776144
289.3599828110075
285.50964625128796
282.7837522152978
280.9316066996081
279.75628979193436
279.11586360010466
278.9228096339047
279.14289896901414
279.7944810087239
280.9487168373987
282.7308479170662
285.3220653698727
288.961110568154
293.94438103654096
300.62310256552377
309.396204504541
320.69756574546403
334.97722713592833
352.67632596509975
374.1969120906951
399.86834476151125
429.9123098228982
464.40746464266755
503.2464073003965
545.7902068084135
