# vtk DataFile Version 2.0
Unstructured Grid Example
ASCII
DATASET UNSTRUCTURED_GRID

POINTS 961 float
0.150000006 -0.00839745998 0
0.146666661 -0.00839745998 0
0.143333331 -0.00839745998 0
0.140000001 -0.00839745998 0
0.13666667 -0.00839745998 0
0.13333334 -0.00839745998 0
0.129999995 -0.00839745998 0
0.126666665 -0.00839745998 0
0.123333335 -0.00839745998 0
0.119999997 -0.00839745998 0
0.116666667 -0.00839745998 0
0.113333337 -0.00839745998 0
0.109999999 -0.00839745998 0
0.106666669 -0.00839745998 0
0.103333332 -0.00839745998 0
0.100000001 -0.00839745998 0
0.0966666639 -0.00839745998 0
0.0933333337 -0.00839745998 0
0.0900000036 -0.00839745998 0
0.086666666 -0.00839745998 0
0.0833333358 -0.00839745998 0
0.0799999982 -0.00839745998 0
0.0766666681 -0.00839745998 0
0.0733333305 -0.00839745998 0
0.0700000003 -0.00839745998 0
0.0666666701 -0.00839745998 0
0.0633333325 -0.00839745998 0
0.0599999987 -0.00839745998 0
0.0566666685 -0.00839745998 0
0.0533333346 -0.00839745998 0
0.0500000007 -0.00839745998 0
0.148333326 -0.0112842107 0
0.144999996 -0.0112842107 0
0.141666666 -0.0112842107 0
0.138333336 -0.0112842107 0
0.135000005 -0.0112842107 0
0.13166666 -0.0112842107 0
0.12833333 -0.0112842107 0
0.125 -0.0112842107 0
0.12166667 -0.0112842107 0
0.118333332 -0.0112842107 0
0.115000002 -0.0112842107 0
0.111666664 -0.0112842107 0
0.108333334 -0.0112842107 0
0.104999997 -0.0112842107 0
0.101666667 -0.0112842107 0
0.0983333364 -0.0112842107 0
0.0949999988 -0.0112842107 0
0.0916666687 -0.0112842107 0
0.088333331 -0.0112842107 0
0.0850000009 -0.0112842107 0
0.0816666633 -0.0112842107 0
0.0783333331 -0.0112842107 0
0.075000003 -0.0112842107 0
0.0716666654 -0.0112842107 0
0.0683333352 -0.0112842107 0
0.0649999976 -0.0112842107 0
0.0616666675 -0.0112842107 0
0.0583333336 -0.0112842107 0
0.0549999997 -0.0112842107 0
0.0516666658 -0.0112842107 0
0.0483333319 -0.0112842107 0
0.146666661 -0.0141709624 0
0.143333331 -0.0141709624 0
0.140000001 -0.0141709624 0
0.13666667 -0.0141709624 0
0.13333334 -0.0141709624 0
0.129999995 -0.0141709624 0
0.126666665 -0.0141709624 0
0.123333335 -0.0141709624 0
0.119999997 -0.0141709624 0
0.116666667 -0.0141709624 0
0.113333337 -0.0141709624 0
0.109999999 -0.0141709624 0
0.106666669 -0.0141709624 0
0.103333332 -0.0141709624 0
0.100000001 -0.0141709624 0
0.0966666639 -0.0141709624 0
0.0933333337 -0.0141709624 0
0.0900000036 -0.0141709624 0
0.086666666 -0.0141709624 0
0.0833333358 -0.0141709624 0
0.0799999982 -0.0141709624 0
0.0766666681 -0.0141709624 0
0.0733333305 -0.0141709624 0
0.0700000003 -0.0141709624 0
0.0666666701 -0.0141709624 0
0.0633333325 -0.0141709624 0
0.0599999987 -0.0141709624 0
0.0566666685 -0.0141709624 0
0.0533333346 -0.0141709624 0
0.0500000007 -0.0141709624 0
0.0466666669 -0.0141709624 0
0.144999996 -0.0170577131 0
0.141666666 -0.0170577131 0
0.138333336 -0.0170577131 0
0.135000005 -0.0170577131 0
0.13166666 -0.0170577131 0
0.12833333 -0.0170577131 0
0.125 -0.0170577131 0
0.12166667 -0.0170577131 0
0.118333332 -0.0170577131 0
0.115000002 -0.0170577131 0
0.111666664 -0.0170577131 0
0.108333334 -0.0170577131 0
0.104999997 -0.0170577131 0
0.101666667 -0.0170577131 0
0.0983333364 -0.0170577131 0
0.0949999988 -0.0170577131 0
0.0916666687 -0.0170577131 0
0.088333331 -0.0170577131 0
0.0850000009 -0.0170577131 0
0.0816666633 -0.0170577131 0
0.0783333331 -0.0170577131 0
0.075000003 -0.0170577131 0
0.0716666654 -0.0170577131 0
0.0683333352 -0.0170577131 0
0.0649999976 -0.0170577131 0
0.0616666675 -0.0170577131 0
0.0583333336 -0.0170577131 0
0.0549999997 -0.0170577131 0
0.0516666658 -0.0170577131 0
0.0483333319 -0.0170577131 0
0.0450000018 -0.0170577131 0
0.143333331 -0.0199444648 0
0.140000001 -0.0199444648 0
0.13666667 -0.0199444648 0
0.13333334 -0.0199444648 0
0.129999995 -0.0199444648 0
0.126666665 -0.0199444648 0
0.123333335 -0.0199444648 0
0.119999997 -0.0199444648 0
0.116666667 -0.0199444648 0
0.113333337 -0.0199444648 0
0.109999999 -0.0199444648 0
0.106666669 -0.0199444648 0
0.103333332 -0.0199444648 0
0.100000001 -0.0199444648 0
0.0966666639 -0.0199444648 0
0.0933333337 -0.0199444648 0
0.0900000036 -0.0199444648 0
0.086666666 -0.0199444648 0
0.0833333358 -0.0199444648 0
0.0799999982 -0.0199444648 0
0.0766666681 -0.0199444648 0
0.0733333305 -0.0199444648 0
0.0700000003 -0.0199444648 0
0.0666666701 -0.0199444648 0
0.0633333325 -0.0199444648 0
0.0599999987 -0.0199444648 0
0.0566666685 -0.0199444648 0
0.0533333346 -0.0199444648 0
0.0500000007 -0.0199444648 0
0.0466666669 -0.0199444648 0
0.043333333 -0.0199444648 0
0.141666666 -0.0228312165 0
0.138333336 -0.0228312165 0
0.135000005 -0.0228312165 0
0.13166666 -0.0228312165 0
0.12833333 -0.0228312165 0
0.125 -0.0228312165 0
0.12166667 -0.0228312165 0
0.118333332 -0.0228312165 0
0.115000002 -0.0228312165 0
0.111666664 -0.0228312165 0
0.108333334 -0.0228312165 0
0.104999997 -0.0228312165 0
0.101666667 -0.0228312165 0
0.0983333364 -0.0228312165 0
0.0949999988 -0.0228312165 0
0.0916666687 -0.0228312165 0
0.088333331 -0.0228312165 0
0.0850000009 -0.0228312165 0
0.0816666633 -0.0228312165 0
0.0783333331 -0.0228312165 0
0.075000003 -0.0228312165 0
0.0716666654 -0.0228312165 0
0.0683333352 -0.0228312165 0
0.0649999976 -0.0228312165 0
0.0616666675 -0.0228312165 0
0.0583333336 -0.0228312165 0
0.0549999997 -0.0228312165 0
0.0516666658 -0.0228312165 0
0.0483333319 -0.0228312165 0
0.0450000018 -0.0228312165 0
0.0416666679 -0.0228312165 0
0.140000001 -0.0257179681 0
0.13666667 -0.0257179681 0
0.13333334 -0.0257179681 0
0.129999995 -0.0257179681 0
0.126666665 -0.0257179681 0
0.123333335 -0.0257179681 0
0.119999997 -0.0257179681 0
0.116666667 -0.0257179681 0
0.113333337 -0.0257179681 0
0.109999999 -0.0257179681 0
0.106666669 -0.0257179681 0
0.103333332 -0.0257179681 0
0.100000001 -0.0257179681 0
0.0966666639 -0.0257179681 0
0.0933333337 -0.0257179681 0
0.0900000036 -0.0257179681 0
0.086666666 -0.0257179681 0
0.0833333358 -0.0257179681 0
0.0799999982 -0.0257179681 0
0.0766666681 -0.0257179681 0
0.0733333305 -0.0257179681 0
0.0700000003 -0.0257179681 0
0.0666666701 -0.0257179681 0
0.0633333325 -0.0257179681 0
0.0599999987 -0.0257179681 0
0.0566666685 -0.0257179681 0
0.0533333346 -0.0257179681 0
0.0500000007 -0.0257179681 0
0.0466666669 -0.0257179681 0
0.043333333 -0.0257179681 0
0.0399999991 -0.0257179681 0
0.138333336 -0.0286047198 0
0.135000005 -0.0286047198 0
0.13166666 -0.0286047198 0
0.12833333 -0.0286047198 0
0.125 -0.0286047198 0
0.12166667 -0.0286047198 0
0.118333332 -0.0286047198 0
0.115000002 -0.0286047198 0
0.111666664 -0.0286047198 0
0.108333334 -0.0286047198 0
0.104999997 -0.0286047198 0
0.101666667 -0.0286047198 0
0.0983333364 -0.0286047198 0
0.0949999988 -0.0286047198 0
0.0916666687 -0.0286047198 0
0.088333331 -0.0286047198 0
0.0850000009 -0.0286047198 0
0.0816666633 -0.0286047198 0
0.0783333331 -0.0286047198 0
0.075000003 -0.0286047198 0
0.0716666654 -0.0286047198 0
0.0683333352 -0.0286047198 0
0.0649999976 -0.0286047198 0
0.0616666675 -0.0286047198 0
0.0583333336 -0.0286047198 0
0.0549999997 -0.0286047198 0
0.0516666658 -0.0286047198 0
0.0483333319 -0.0286047198 0
0.0450000018 -0.0286047198 0
0.0416666679 -0.0286047198 0
0.038333334 -0.0286047198 0
0.13666667 -0.0314914696 0
0.13333334 -0.0314914696 0
0.129999995 -0.0314914696 0
0.126666665 -0.0314914696 0
0.123333335 -0.0314914696 0
0.119999997 -0.0314914696 0
0.116666667 -0.0314914696 0
0.113333337 -0.0314914696 0
0.109999999 -0.0314914696 0
0.106666669 -0.0314914696 0
0.103333332 -0.0314914696 0
0.100000001 -0.0314914696 0
0.0966666639 -0.0314914696 0
0.0933333337 -0.0314914696 0
0.0900000036 -0.0314914696 0
0.086666666 -0.0314914696 0
0.0833333358 -0.0314914696 0
0.0799999982 -0.0314914696 0
0.0766666681 -0.0314914696 0
0.0733333305 -0.0314914696 0
0.0700000003 -0.0314914696 0
0.0666666701 -0.0314914696 0
0.0633333325 -0.0314914696 0
0.0599999987 -0.0314914696 0
0.0566666685 -0.0314914696 0
0.0533333346 -0.0314914696 0
0.0500000007 -0.0314914696 0
0.0466666669 -0.0314914696 0
0.043333333 -0.0314914696 0
0.0399999991 -0.0314914696 0
0.0366666652 -0.0314914696 0
0.135000005 -0.0343782231 0
0.13166666 -0.0343782231 0
0.12833333 -0.0343782231 0
0.125 -0.0343782231 0
0.12166667 -0.0343782231 0
0.118333332 -0.0343782231 0
0.115000002 -0.0343782231 0
0.111666664 -0.0343782231 0
0.108333334 -0.0343782231 0
0.104999997 -0.0343782231 0
0.101666667 -0.0343782231 0
0.0983333364 -0.0343782231 0
0.0949999988 -0.0343782231 0
0.0916666687 -0.0343782231 0
0.088333331 -0.0343782231 0
0.0850000009 -0.0343782231 0
0.0816666633 -0.0343782231 0
0.0783333331 -0.0343782231 0
0.075000003 -0.0343782231 0
0.0716666654 -0.0343782231 0
0.0683333352 -0.0343782231 0
0.0649999976 -0.0343782231 0
0.0616666675 -0.0343782231 0
0.0583333336 -0.0343782231 0
0.0549999997 -0.0343782231 0
0.0516666658 -0.0343782231 0
0.0483333319 -0.0343782231 0
0.0450000018 -0.0343782231 0
0.0416666679 -0.0343782231 0
0.038333334 -0.0343782231 0
0.0350000001 -0.0343782231 0
0.13333334 -0.0372649729 0
0.129999995 -0.0372649729 0
0.126666665 -0.0372649729 0
0.123333335 -0.0372649729 0
0.119999997 -0.0372649729 0
0.116666667 -0.0372649729 0
0.113333337 -0.0372649729 0
0.109999999 -0.0372649729 0
0.106666669 -0.0372649729 0
0.103333332 -0.0372649729 0
0.100000001 -0.0372649729 0
0.0966666639 -0.0372649729 0
0.0933333337 -0.0372649729 0
0.0900000036 -0.0372649729 0
0.086666666 -0.0372649729 0
0.0833333358 -0.0372649729 0
0.0799999982 -0.0372649729 0
0.0766666681 -0.0372649729 0
0.0733333305 -0.0372649729 0
0.0700000003 -0.0372649729 0
0.0666666701 -0.0372649729 0
0.0633333325 -0.0372649729 0
0.0599999987 -0.0372649729 0
0.0566666685 -0.0372649729 0
0.0533333346 -0.0372649729 0
0.0500000007 -0.0372649729 0
0.0466666669 -0.0372649729 0
0.043333333 -0.0372649729 0
0.0399999991 -0.0372649729 0
0.0366666652 -0.0372649729 0
0.0333333351 -0.0372649729 0
0.13166666 -0.0401517227 0
0.12833333 -0.0401517227 0
0.125 -0.0401517227 0
0.12166667 -0.0401517227 0
0.118333332 -0.0401517227 0
0.115000002 -0.0401517227 0
0.111666664 -0.0401517227 0
[...]
POINT_DATA 961
SCALARS Temp float 1
LOOKUP_TABLE default
575.3498456330985
534.4053345513644
496.58833517851883
462.4733089575651
432.2039272998914
405.7776943101318
383.07572709203225
363.8862757164198
347.9273069720531
334.87044177708935
324.3635525898157
316.05095103411713
309.59070558667383
304.6682889222457
301.0064767860156
298.37221465830055
296.5807033677838
295.4976762011082
295.0403916056655
295.17795845231007
295.93124637856056
297.3724157265687
299.62380431121846
302.8557887983331
307.2829620172603
313.1583461359151
320.76529126659585
330.40753768632595
342.3995538550795
357.0638545318237
374.8712875727564
534.4053459200945
493.3960925760066
456.1528268388765
422.83118001315086
393.492675075018
368.0715412800578
346.3960212746086
328.21012403645994
313.19787308298754
301.0069111204977
291.2708007145813
283.62825324144274
277.7392606905648
273.29715580146274
270.0373785593802
267.743032511186
266.2481962651143
265.43959376166225
265.25725429895226
265.69465750648226
266.7984761979098
268.66781256632135
271.4526041590586
275.35062646420147
280.6025447737576
287.4847375623377
296.29960175620516
307.3643422778336
320.99953364101583
337.5244198917125
357.06387385306795
496.5882892194015
456.1528026813355
419.68085758029923
387.2801244828631
358.94140118717866
334.54326781986003
313.8690319156403
296.62811603228505
282.48017510874394
271.05830487570887
261.99001943719884
254.91545998700443
249.5019153743422
245.4545099883547
242.52377251630742
240.5102705289001
239.26732471448884
238.7022982415025
238.77712519763125
239.50833770617504
240.96664334342213
243.27580115538981
246.61038997115818
251.19178966691288
257.281996222517
265.1747461387395
275.1839093179618
287.62934519056853
302.81872829778615
320.99952510015356
342.39956618924236
462.47324495604107
422.8311401123917
387.2801204705238
355.8762792138935
328.55794948895584
305.1592768017414
285.42845901468417
269.05047901245734
255.67010683426744
244.91418766023014
236.41122577927993
229.80819160170674
224.7833918463672
221.05614005958046
218.39316877076348
216.61271474360134
215.5868195047396
215.24246018319735
215.56202734787158
216.58327064606695
218.3986475345713
221.15376164765524
225.04432009753728
230.31100637481114
237.23185134717454
246.1114737191483
257.26733414639125
271.01204157424195
287.6293630377165
307.364355328978
330.4075293863798
432.2038575300462
393.4926303669956
358.94137198892605
328.55805127845656
302.2382708424586
279.78205759240694
260.91316690357877
245.30159249634107
232.58577257669168
222.39317120994863
214.3586814440596
208.13977843823824
203.4281174563261
199.95819089172372
197.5130301030341
195.92790452106556
195.09240998501136
194.95160826163217
195.5064780369549
196.81376347633673
198.98502685018664
202.18452180140895
206.6252250633061
212.56258244179088
220.28530637274386
230.10291890492317
242.3300214252458
257.2673261948527
275.1839034257861
296.299601522541
320.7652957975486
405.7776149268353
368.0715957477592
334.5433386715815
305.15923720481624
279.78204064283824
258.1873844720647
240.08431951220058
225.13635439558075
212.9824747387942
203.256172406739
195.60245474217285
189.6914322808693
185.22912421483372
181.96515166814723
179.69812376893572
178.27909820722851
177.61364836809767
177.66305464472615
178.44473942332885
180.03196339199613
182.5525205460965
186.18593292488868
191.15855867446209
197.73616273842617
206.2132789763424
216.8995481664759
230.10291362512243
246.11147546419528
265.174752122839
287.48471443850644
313.1583452053454
383.07574575072516
346.39605572955935
313.869093706131
285.42840959418163
260.9131421213719
240.08431040200853
222.64450394913615
208.2578174505125
196.56897282426158
187.22121213178434
179.87175885572236
174.2043352710309
169.93919011323266
166.84030284973818
164.720579648796
163.445235621758
162.9339838381897
163.16226719856542
164.16166281806372
166.0193699418196
168.87646826638124
172.92439015933195
178.39918716756122
185.57296543972961
194.7422219321418
206.21327295951713
220.2852943904899
237.23183448545495
257.2819988052721
280.6025444464739
307.2829694362877
363.88629413497165
328.2101558435956
296.62804141507735
269.050427897918
245.30159977527998
225.13637766976083
208.2578099589243
194.33573029143398
183.02431237236826
173.97871434834929
166.86914562496972
161.39287903318208
157.2835092851983
154.31806768294084
152.32212244025393
151.1732451488111
150.8033307241279
151.19986378998715
152.40625944947718
154.5210966127427
157.69588679518415
162.13088487200213
168.0685485121684
175.78404195848282
185.57296078358112
197.7361552667336
212.5625876151733
230.31100881352967
251.1917737496192
275.3506062743173
302.85577666803147
347.9273156235089
313.19790903000535
282.4801361183889
255.67009193655545
232.5857800960901
212.9824533504474
196.56896371322728
183.02433689682093
172.0143566380678
163.2068474821125
156.28492113706076
150.95845849009862
146.9730867115553
144.11727322349432
142.22744550558542
141.19166961438256
140.95205787589623
141.50606638903537
142.90672196401755
145.26156437044725
148.72991958615225
153.518162033589
159.87243422296135
168.06855326526002
178.39919205637366
191.15856050647034
206.62522411530327
225.04431523785792
246.6103923923092
271.4526141531346
299.62382382177105
334.87049204168574
301.00684737968396
271.0582762636357
244.91417802198131
222.39318134392227
203.25617209633754
187.22122418051953
173.97870493251315
163.2068402776693
154.58580896313677
147.81079338450104
142.60286276563107
138.71806658012383
135.95454104503278
134.15778980036413
133.22455287809905
133.1052825274777
133.8054644597155
135.38568499889954
137.96026860586068
141.69412565765396
146.7975099429678
153.51815814290887
162.13088506915156
172.92438865400624
186.18592991294
202.18451768711958
221.15374145954144
243.27578580143918
268.6677954111431
297.37240784709604
324.36362874964595
291.27074872942103
261.9899979106301
236.41123940061237
214.35866482171983
195.60245534407412
179.871771693161
166.86914925581812
156.28492884573035
147.81079207590182
141.15251612245126
136.04075652670247
132.24025985210957
129.55705457100495
127.8440158561036
127.00485027690846
126.99665201457609
127.83119059473553
129.57481088945534
132.34676498382768
136.31573438104917
141.69413393754735
148.7299209854899
157.69588322364893
168.87646253947338
182.55252079296866
198.98502468466816
218.3986451812542
240.96664888534832
266.79848345475216
295.9312346670657
316.0508918695679
283.6282255554938
254.91546048222767
229.80820816259256
208.13976222749133
189.69144513292775
174.2043265922921
161.39288232774686
150.95844678298604
142.6028615504196
136.04076611266473
131.01068022586801
127.28430725566473
124.67394051000544
123.03826290501438
122.2864145087361
122.38064697237604
123.33751550254043
125.22762000635363
128.1736818175592
132.3467722757956
137.96027328640298
145.2615621442398
154.52110709770204
166.0193808145631
180.03197608619877
196.81375675614328
216.58326286905273
239.50834071786463
265.6946607650708
295.17797211299376
309.59067198791263
277.73924864892047
249.501928932136
224.78337329912736
203.42812019105253
185.22914429772254
169.93918619557368
157.2835166440851
146.97308308858229
138.71807228482785
132.2402547808554
127.28430372684329
123.62722382484928
121.08610379646252
119.52404383776754
118.85433655841602
119.04314218272299
120.11059717512404
122.13038150571168
125.2276118836244
129.57480860339123
135.3856917750095
142.90671417555632
152.40625697333738
164.16165923321495
178.44473499857733
195.5064762117575
215.5620257658063
238.7771328983984
265.2572317593494
295.0403958021054
304.66825762802176
273.29715443660245
245.454535921363
221.05612325659433
199.95819685197048
181.96513429344853
166.84030661133988
154.3180595285427
144.11727036467553
135.95454858458402
129.55704901753256
124.6739421648968
121.08610291550865
118.61413520097435
117.12438023381537
116.5332529996387
116.80984629471351
117.9769766349228
120.11059578288953
123.33751804869149
127.83119083791097
133.80546885821718
141.50606584490956
151.19987038033224
163.1622770150506
177.66304924351365
194.95160235812617
215.24245406802723
238.7023001286088
265.43959720476533
295.4976747556935
301.006470944816
270.0373944856936
242.52375279406198
218.39316645698355
197.5130539087654
179.69812116444965
164.72059251137026
152.3221200833095
142.22744446535557
134.15778832378516
127.84401646571573
123.0382654054774
119.52404259178846
117.12438215982934
115.7079846367806
115.19359919198438
115.55258318608752
116.80984515353265
119.04313974992462
122.38064461227552
126.99665242826896
133.10528009293418
140.9520501103692
150.80332891493862
162.93398138837384
177.61364713002115
195.09240863841407
215.58681929604953
239.26730642279887
266.24819337176535
296.5806961836466
298.3722127349767
267.7430528141345
240.51025789516243
216.612720634172
195.9278858621992
178.27909863871923
163.44522241083766
151.17324741278952
141.1916746229707
133.22455227238586
127.00485192283028
122.28640933248813
118.85433765810102
116.53325085524287
115.19359931050224
114.75596437664225
115.19360001630949
116.53325181340686
118.854339909984
122.28641181059255
127.00484934993642
133.2245571977492
141.19167027316942
151.1732535303497
163.4452294582866
178.27909272389195
195.92790002545908
216.61271021767195
240.51027611912167
267.74302027704846
298.3722152387355
296.5807257646053
266.24817275365706
239.267332278877
215.58684367795271
195.09240526559694
177.6136638111007
162.93398256593105
150.80333886998505
140.95205035826282
133.10528763487576
126.99665907416961
122.38064508659292
119.0431465827663
116.80984611531899
115.55258396810602
115.19360056080954
115.70798579513391
117.1243793376303
119.5240441374669
123.03826207676939
127.8440122883258
134.1577898114726
142.22743785823948
152.32212055978852
164.72057960336986
179.69812526877732
197.51303347003403
218.3931441193645
242.52377023080712
270.03736225518935
301.00647199919734
295.49770738235736
265.43957688461035
238.70231134882306
215.24243714125973
194.9516085814516
177.66304039424065
163.16226936935655
151.19987533351542
141.50605965717108
133.80547197193422
127.83118757103456
123.33751508128739
120.11059428276057
117.97697542273156
116.80984743414136
116.53325324785665
117.12438068942444
118.61413679128577
121.08610466778079
124.67394007791887
129.5570528022542
135.9545448196416
144.11727513305925
154.31806496785896
166.8403010377283
181.9651456815891
199.9581864720931
221.05613728128438
245.45450220708503
273.297150440501
304.66828827976315
295.04035975008
265.2572445713233
238.77714480469703
215.56200807046287
195.5064833575909
178.4447260947752
164.16166240935448
152.40625002438452
142.90671742430013
135.38569506716973
129.57480511870494
125.22761759627728
122.13037994944325
120.11059596316466
119.0431420269767
118.85433659895442
119.52404211439905
121.08610519198967
123.62722207903586
127.28430191009329
132.24025804033806
138.7180698833428
146.9730874171886
157.2835108621969
169.9391960066454
185.2291340930884
203.4281093266121
224.78339824480966
249.5019096409077
277.7392584107127
309.59071548399106
295.17795237080225
265.6946725164901
239.5083205895592
216.58326911931937
196.81374595389838
180.03196684217366
166.01938641521377
154.52109963920967
145.26156587720737
137.9602692375285
132.34676860024229
128.17367977758497
125.22761827512358
123.33751776669178
122.3806468368455
122.28641452790433
123.03826392183016
124.67394163527761
127.28430560786917
131.01068304384836
136.04076290911757
142.6028651988035
150.95845086762955
161.39287717879552
174.2043356088973
189.69143515877815
208.1397732864904
229.80817610942756
254.91545453490502
283.6282504770214
316.05094433885694
295.93124554044056
266.79849450193933
240.96662776479033
218.39865244666896
198.98501409775307
182.55252430875478
168.8764542992434
157.69588708920196
148.72992495863218
141.69412972387607
136.31574161852112
132.34676300334488
129.57480927331176
127.83119004412687
126.99665159259446
127.00484962946204
127.84401676417899
129.55705322788438
132.24025845200907
136.04075891516564
141.15251400458925
147.81079532133904
156.2849236668414
166.86915705903886
179.8717622455313
195.60244524551308
214.35868615516077
236.41122180829552
261.9900081284485
291.27079328998803
324.3635439814451
297.37241653203216
268.6677707101193
243.27579179023667
221.15372888299694
202.1845070638868
186.18593630183338
172.92438011068987
162.13088954411293
153.51815343271855
146.7975056645573
141.69412314686784
137.96026640132996
135.38568835415614
133.8054640409819
133.1052822030081
133.22455343371624
134.15779041949236
135.9545397956451
138.71806862408974
142.60286008578345
147.81079614989213
154.58581196024807
163.20683562504632
173.97871208920506
187.22121504886712
203.25618139802668
222.39315286869413
244.9141744505567
271.0583051160334
301.0069175674208
334.8704528455005
299.6238537815873
271.45261119985645
246.61042008668795
225.04432208302273
206.6252456806924
191.15856764823528
178.39921212029716
168.0685726473482
159.8724433365338
153.5181841252272
148.72993013015136
145.26157485466706
142.90673314303066
141.50607728740127
140.9520695479619
141.1916812060053
142.22745517054162
144.11728240868732
146.9730980919974
150.9584656606447
156.28493177010503
163.20685023617884
172.01436909423586
183.02433339874304
196.56895842415773
212.98247435511988
232.58576588987606
255.67010337721976
282.4801824491101
313.19783673979316
347.92728529889354
302.85577360572
275.35063601291154
251.1917815851404
230.31101754388848
212.56261414522632
197.73616426375895
185.5729835746629
175.78405357513395
168.068560003591
162.1308977042977
157.6958994920051
154.52111589639568
152.40627347456646
151.19987755402295
150.8033449709252
151.17325910334975
152.3221348953401
154.31808205655963
157.28351946437436
161.392892890033
166.86915877188378
173.97872027012454
183.02432707866896
194.3357298171156
208.25782420450093
225.13635721440122
245.30160068345555
269.05045799671046
296.62810857547373
328.2101159937073
363.88628047411504
307.2829596511671
280.60256545076055
257.2819977160464
237.23185021616155
220.28529496232318
206.21328847201102
194.742237237903
185.5729696801137
178.39920649357688
172.92439668724634
168.87647495826806
166.01937751704713
164.16167024022218
163.16227666510775
162.93399243628863
163.4452430743466
164.72058693858048
166.84031184517238
169.9391960214315
174.20434419498278
179.8717615954629
187.22122327142625
196.56897064678705
208.2578141410473
222.64452398054095
240.08429947822268
260.9131545957706
285.4284535942546
313.8690252738044
346.3960235984013
383.0757493276965
313.1583541292387
287.4847007515719
265.1747405812148
246.11148410515943
230.10290434612992
216.89955455938411
206.21327378095873
197.73615795456155
191.1585556696272
186.18593012621204
182.5525257337156
180.03196273235375
178.44473872400644
177.663054618053
177.61364833209058
178.27909758791185
179.69812477509768
181.96514979041726
185.22912573415795
189.69143362330917
195.602450675376
203.25617636910803
212.98246622913092
225.1363592974427
240.0842940128085
258.18737826526126
279.78206049397903
305.15928930777784
334.5432874700078
368.07156083162886
405.7776141617343
320.76529082728
296.2995753095202
275.1838959402655
257.26730325868175
242.33001480764204
230.10291236870611
220.28528822157688
212.5625808247144
206.62520985859803
202.18450695043524
198.98501302282313
196.81374961644826
195.5064671632862
194.95159602560955
195.09239721311727
195.92789189073363
197.51301891159167
199.95817753406536
203.42810689968596
208.1397631333682
214.3586736448945
222.3931522948171
232.58575308685238
245.30159374689703
260.91314023632276
279.7820513045755
302.2382914823613
328.5579638590388
358.94131151296875
393.49259265711925
432.203846087771
330.4075455136778
307.36437391409044
287.62940269461393
271.0120622789584
257.2673706113398
246.11149766628523
237.23187546117344
230.311031999033
225.04434575721004
221.1537958069654
218.39867523448547
216.58329814735293
215.56205531354342
215.24248799516945
215.58684695298487
216.61274311733135
218.39319456413332
221.05616827428395
224.7834193180888
229.8082138329172
236.41125406949928
244.91420386461792
255.67013335503145
269.0504762303279
285.4284708909355
305.1593086489161
328.55800563960725
355.87623155059134
387.2800767676551
422.831112509973
462.4732510521675
342.3995786129981
320.99955824484636
302.81874484526264
287.62937750870174
275.1839411352445
265.1747656944107
257.2820324531646
251.19181183551345
246.61041236175274
243.27582438165382
240.96666635064415
239.50836394705226
238.77714957789124
238.7023221559435
239.2673485817651
240.51029518264863
242.52379498276608
245.45453433006102
249.50193501563672
254.9154853163716
261.9900338609607
271.05831746095515
282.4802044798133
296.6281176261241
313.8690488071998
334.54330489288276
358.9413316603666
387.2800710154917
419.68081266947223
456.1527690166041
496.58828570065
357.0638772101937
337.52444193122324
320.99953538269466
307.3643591438168
296.29960600222915
287.48474193859204
280.6025506128218
275.3506324330968
271.45261891476264
268.66782082891285
266.7984842197643
265.69466604545374
265.2572628149431
265.43960229652646
266.2482055950815
267.74303981253325
270.0373881288789
273.2971648277766
277.7392653565816
283.62826349763304
291.2708002322311
301.0069200085174
313.1978551929092
328.2101190226829
346.39603327045137
368.07157361044443
393.4926073974998
422.83110965256526
456.15275997745357
493.39603477549866
534.4052594410479
374.8713028531916
357.0638484744382
342.3995622210125
330.4075452709127
320.765286334981
313.1583575346051
307.2829594353625
302.855787090029
299.62380331234965
297.3724139108482
295.9312480981755
295.1779581841199
295.04039132122296
295.4976758398622
296.58070373163713
298.37221332663546
301.0064768771196
304.6682853505895
309.5907071730497
316.05094285169685
324.3635428964353
334.87044779823407
347.927287896343
363.88627003810285
383.07573866093395
405.7776062232707
432.20385293598156
462.4732371771237
496.588262001848
534.4052437924379
575.3494898952001
