# vtk DataFile Version 2.0
Unstructured Grid Example
ASCII
DATASET UNSTRUCTURED_GRID

POINTS 961 float
0.150000006 -0.00839745998 0
0.146666661 -0.00839745998 0
0.143333331 -0.00839745998 0
0.140000001 -0.00839745998 0
0.13666667 -0.00839745998 0
0.13333334 -0.00839745998 0
0.129999995 -0.00839745998 0
0.126666665 -0.00839745998 0
0.123333335 -0.00839745998 0
0.119999997 -0.00839745998 0
0.116666667 -0.00839745998 0
0.113333337 -0.00839745998 0
0.109999999 -0.00839745998 0
0.106666669 -0.00839745998 0
0.103333332 -0.00839745998 0
0.100000001 -0.00839745998 0
0.0966666639 -0.00839745998 0
0.0933333337 -0.00839745998 0
0.0900000036 -0.00839745998 0
0.086666666 -0.00839745998 0
0.0833333358 -0.00839745998 0
0.0799999982 -0.00839745998 0
0.0766666681 -0.00839745998 0
0.0733333305 -0.00839745998 0
0.0700000003 -0.00839745998 0
0.0666666701 -0.00839745998 0
0.0633333325 -0.00839745998 0
0.0599999987 -0.00839745998 0
0.0566666685 -0.00839745998 0
0.0533333346 -0.00839745998 0
0.0500000007 -0.00839745998 0
0.148333326 -0.0112842107 0
0.144999996 -0.0112842107 0
0.141666666 -0.0112842107 0
0.138333336 -0.0112842107 0
0.135000005 -0.0112842107 0
0.13166666 -0.0112842107 0
0.12833333 -0.0112842107 0
0.125 -0.0112842107 0
0.12166667 -0.0112842107 0
0.118333332 -0.0112842107 0
0.115000002 -0.0112842107 0
0.111666664 -0.0112842107 0
0.108333334 -0.0112842107 0
0.104999997 -0.0112842107 0
0.101666667 -0.0112842107 0
0.0983333364 -0.0112842107 0
0.0949999988 -0.0112842107 0
0.0916666687 -0.0112842107 0
0.088333331 -0.0112842107 0
0.0850000009 -0.0112842107 0
0.0816666633 -0.0112842107 0
0.0783333331 -0.0112842107 0
0.075000003 -0.0112842107 0
0.0716666654 -0.0112842107 0
0.0683333352 -0.0112842107 0
0.0649999976 -0.0112842107 0
0.0616666675 -0.0112842107 0
0.0583333336 -0.0112842107 0
0.0549999997 -0.0112842107 0
0.0516666658 -0.0112842107 0
0.0483333319 -0.0112842107 0
0.146666661 -0.0141709624 0
0.143333331 -0.0141709624 0
0.140000001 -0.0141709624 0
0.13666667 -0.0141709624 0
0.13333334 -0.0141709624 0
0.129999995 -0.0141709624 0
0.126666665 -0.0141709624 0
0.123333335 -0.0141709624 0
0.119999997 -0.0141709624 0
0.116666667 -0.0141709624 0
0.113333337 -0.0141709624 0
0.109999999 -0.0141709624 0
0.106666669 -0.0141709624 0
0.103333332 -0.0141709624 0
0.100000001 -0.0141709624 0
0.0966666639 -0.0141709624 0
0.0933333337 -0.0141709624 0
0.0900000036 -0.0141709624 0
0.086666666 -0.0141709624 0
0.0833333358 -0.0141709624 0
0.0799999982 -0.0141709624 0
0.0766666681 -0.0141709624 0
0.0733333305 -0.0141709624 0
0.0700000003 -0.0141709624 0
0.0666666701 -0.0141709624 0
0.0633333325 -0.0141709624 0
0.0599999987 -0.0141709624 0
0.0566666685 -0.0141709624 0
0.0533333346 -0.0141709624 0
0.0500000007 -0.0141709624 0
0.0466666669 -0.0141709624 0
0.144999996 -0.0170577131 0
0.141666666 -0.0170577131 0
0.138333336 -0.0170577131 0
0.135000005 -0.0170577131 0
0.13166666 -0.0170577131 0
0.12833333 -0.0170577131 0
0.125 -0.0170577131 0
0.12166667 -0.0170577131 0
0.118333332 -0.0170577131 0
0.115000002 -0.0170577131 0
0.111666664 -0.0170577131 0
0.108333334 -0.0170577131 0
0.104999997 -0.0170577131 0
0.101666667 -0.0170577131 0
0.0983333364 -0.0170577131 0
0.0949999988 -0.0170577131 0
0.0916666687 -0.0170577131 0
0.088333331 -0.0170577131 0
0.0850000009 -0.0170577131 0
0.0816666633 -0.0170577131 0
0.0783333331 -0.0170577131 0
0.075000003 -0.0170577131 0
0.0716666654 -0.0170577131 0
0.0683333352 -0.0170577131 0
0.0649999976 -0.0170577131 0
0.0616666675 -0.0170577131 0
0.0583333336 -0.0170577131 0
0.0549999997 -0.0170577131 0
0.0516666658 -0.0170577131 0
0.0483333319 -0.0170577131 0
0.0450000018 -0.0170577131 0
0.143333331 -0.0199444648 0
0.140000001 -0.0199444648 0
0.13666667 -0.0199444648 0
0.13333334 -0.0199444648 0
0.129999995 -0.0199444648 0
0.126666665 -0.0199444648 0
0.123333335 -0.0199444648 0
0.119999997 -0.0199444648 0
0.116666667 -0.0199444648 0
0.113333337 -0.0199444648 0
0.109999999 -0.0199444648 0
0.106666669 -0.0199444648 0
0.103333332 -0.0199444648 0
0.100000001 -0.0199444648 0
0.0966666639 -0.0199444648 0
0.0933333337 -0.0199444648 0
0.0900000036 -0.0199444648 0
0.086666666 -0.0199444648 0
0.0833333358 -0.0199444648 0
0.0799999982 -0.0199444648 0
0.0766666681 -0.0199444648 0
0.0733333305 -0.0199444648 0
0.0700000003 -0.0199444648 0
0.0666666701 -0.0199444648 0
0.0633333325 -0.0199444648 0
0.0599999987 -0.0199444648 0
0.0566666685 -0.0199444648 0
0.0533333346 -0.0199444648 0
0.0500000007 -0.0199444648 0
0.0466666669 -0.0199444648 0
0.043333333 -0.0199444648 0
0.141666666 -0.0228312165 0
0.138333336 -0.0228312165 0
0.135000005 -0.0228312165 0
0.13166666 -0.0228312165 0
0.12833333 -0.0228312165 0
0.125 -0.0228312165 0
0.12166667 -0.0228312165 0
0.118333332 -0.0228312165 0
0.115000002 -0.0228312165 0
0.111666664 -0.0228312165 0
0.108333334 -0.0228312165 0
0.104999997 -0.0228312165 0
0.101666667 -0.0228312165 0
0.0983333364 -0.0228312165 0
0.0949999988 -0.0228312165 0
0.0916666687 -0.0228312165 0
0.088333331 -0.0228312165 0
0.0850000009 -0.0228312165 0
0.0816666633 -0.0228312165 0
0.0783333331 -0.0228312165 0
0.075000003 -0.0228312165 0
0.0716666654 -0.0228312165 0
0.0683333352 -0.0228312165 0
0.0649999976 -0.0228312165 0
0.0616666675 -0.0228312165 0
0.0583333336 -0.0228312165 0
0.0549999997 -0.0228312165 0
0.0516666658 -0.0228312165 0
0.0483333319 -0.0228312165 0
0.0450000018 -0.0228312165 0
0.0416666679 -0.0228312165 0
0.140000001 -0.0257179681 0
0.13666667 -0.0257179681 0
0.13333334 -0.0257179681 0
0.129999995 -0.0257179681 0
0.126666665 -0.0257179681 0
0.123333335 -0.0257179681 0
0.119999997 -0.0257179681 0
0.116666667 -0.0257179681 0
0.113333337 -0.0257179681 0
0.109999999 -0.0257179681 0
0.106666669 -0.0257179681 0
0.103333332 -0.0257179681 0
0.100000001 -0.0257179681 0
0.0966666639 -0.0257179681 0
0.0933333337 -0.0257179681 0
0.0900000036 -0.0257179681 0
0.086666666 -0.0257179681 0
0.0833333358 -0.0257179681 0
0.0799999982 -0.0257179681 0
0.0766666681 -0.0257179681 0
0.0733333305 -0.0257179681 0
0.0700000003 -0.0257179681 0
0.0666666701 -0.0257179681 0
0.0633333325 -0.0257179681 0
0.0599999987 -0.0257179681 0
0.0566666685 -0.0257179681 0
0.0533333346 -0.0257179681 0
0.0500000007 -0.0257179681 0
0.0466666669 -0.0257179681 0
0.043333333 -0.0257179681 0
0.0399999991 -0.0257179681 0
0.138333336 -0.0286047198 0
0.135000005 -0.0286047198 0
0.13166666 -0.0286047198 0
0.12833333 -0.0286047198 0
0.125 -0.0286047198 0
0.12166667 -0.0286047198 0
0.118333332 -0.0286047198 0
0.115000002 -0.0286047198 0
0.111666664 -0.0286047198 0
0.108333334 -0.0286047198 0
0.104999997 -0.0286047198 0
0.101666667 -0.0286047198 0
0.0983333364 -0.0286047198 0
0.0949999988 -0.0286047198 0
0.0916666687 -0.0286047198 0
0.088333331 -0.0286047198 0
0.0850000009 -0.0286047198 0
0.0816666633 -0.0286047198 0
0.0783333331 -0.0286047198 0
0.075000003 -0.0286047198 0
0.0716666654 -0.0286047198 0
0.0683333352 -0.0286047198 0
0.0649999976 -0.0286047198 0
0.0616666675 -0.0286047198 0
0.0583333336 -0.0286047198 0
0.0549999997 -0.0286047198 0
0.0516666658 -0.0286047198 0
0.0483333319 -0.0286047198 0
0.0450000018 -0.0286047198 0
0.0416666679 -0.0286047198 0
0.038333334 -0.0286047198 0
0.13666667 -0.0314914696 0
0.13333334 -0.0314914696 0
0.129999995 -0.0314914696 0
0.126666665 -0.0314914696 0
0.123333335 -0.0314914696 0
0.119999997 -0.0314914696 0
0.116666667 -0.0314914696 0
0.113333337 -0.0314914696 0
0.109999999 -0.0314914696 0
0.106666669 -0.0314914696 0
0.103333332 -0.0314914696 0
0.100000001 -0.0314914696 0
0.0966666639 -0.0314914696 0
0.0933333337 -0.0314914696 0
0.0900000036 -0.0314914696 0
0.086666666 -0.0314914696 0
0.0833333358 -0.0314914696 0
0.0799999982 -0.0314914696 0
0.0766666681 -0.0314914696 0
0.0733333305 -0.0314914696 0
0.0700000003 -0.0314914696 0
0.0666666701 -0.0314914696 0
0.0633333325 -0.0314914696 0
0.0599999987 -0.0314914696 0
0.0566666685 -0.0314914696 0
0.0533333346 -0.0314914696 0
0.0500000007 -0.0314914696 0
0.0466666669 -0.0314914696 0
0.043333333 -0.0314914696 0
0.0399999991 -0.0314914696 0
0.0366666652 -0.0314914696 0
0.135000005 -0.0343782231 0
0.13166666 -0.0343782231 0
0.12833333 -0.0343782231 0
0.125 -0.0343782231 0
0.12166667 -0.0343782231 0
0.118333332 -0.0343782231 0
0.115000002 -0.0343782231 0
0.111666664 -0.0343782231 0
0.108333334 -0.0343782231 0
0.104999997 -0.0343782231 0
0.101666667 -0.0343782231 0
0.0983333364 -0.0343782231 0
0.0949999988 -0.0343782231 0
0.0916666687 -0.0343782231 0
0.088333331 -0.0343782231 0
0.0850000009 -0.0343782231 0
0.0816666633 -0.0343782231 0
0.0783333331 -0.0343782231 0
0.075000003 -0.0343782231 0
0.0716666654 -0.0343782231 0
0.0683333352 -0.0343782231 0
0.0649999976 -0.0343782231 0
0.0616666675 -0.0343782231 0
0.0583333336 -0.0343782231 0
0.0549999997 -0.0343782231 0
0.0516666658 -0.0343782231 0
0.0483333319 -0.0343782231 0
0.0450000018 -0.0343782231 0
0.0416666679 -0.0343782231 0
0.038333334 -0.0343782231 0
0.0350000001 -0.0343782231 0
0.13333334 -0.0372649729 0
0.129999995 -0.0372649729 0
0.126666665 -0.0372649729 0
0.123333335 -0.0372649729 0
0.119999997 -0.0372649729 0
0.116666667 -0.0372649729 0
0.113333337 -0.0372649729 0
0.109999999 -0.0372649729 0
0.106666669 -0.0372649729 0
0.103333332 -0.0372649729 0
0.100000001 -0.0372649729 0
0.0966666639 -0.0372649729 0
0.0933333337 -0.0372649729 0
0.0900000036 -0.0372649729 0
0.086666666 -0.0372649729 0
0.0833333358 -0.0372649729 0
0.0799999982 -0.0372649729 0
0.0766666681 -0.0372649729 0
0.0733333305 -0.0372649729 0
0.0700000003 -0.0372649729 0
0.0666666701 -0.0372649729 0
0.0633333325 -0.0372649729 0
0.0599999987 -0.0372649729 0
0.0566666685 -0.0372649729 0
0.0533333346 -0.0372649729 0
0.0500000007 -0.0372649729 0
0.0466666669 -0.0372649729 0
0.043333333 -0.0372649729 0
0.0399999991 -0.0372649729 0
0.0366666652 -0.0372649729 0
0.0333333351 -0.0372649729 0
0.13166666 -0.0401517227 0
0.12833333 -0.0401517227 0
0.125 -0.0401517227 0
0.12166667 -0.0401517227 0
0.118333332 -0.0401517227 0
0.115000002 -0.0401517227 0
0.111666664 -0.0401517227 0
[...]
POINT_DATA 961
SCALARS Temp float 1
LOOKUP_TABLE default
601.1107076441994
561.6143386495231
524.8083950156268
491.21146567919635
460.98342467119176
434.16623863337264
410.706012460599
390.4693503076188
373.25880748683613
358.8302399367769
346.90987835350427
337.21042061072524
329.4459153460142
323.3445491149049
318.6589844671787
315.1746605281973
312.7157849358497
311.1496218770398
310.3891748733519
310.39465433782107
311.17383686848314
312.781380864121
315.31701020361396
318.92247491403316
323.7769876222211
330.0912499964501
338.10001548050263
348.05383546493164
360.21199412631364
374.84262343107997
392.3538913100914
561.6143495090979
521.9164019540005
485.4692523990377
452.4394439002324
422.9215198847366
396.90672895923325
374.2975887052107
354.9224567772536
338.55274695508865
324.92025986768533
313.7345229446846
304.69861711140135
297.52361842984783
291.94042413684656
287.70951920311546
284.6282553245984
282.5362185224514
281.31883372149923
280.9095011409204
281.29057953812037
282.4932472618097
284.59625116685265
287.723453910087
292.03994764017733
297.74657415423553
305.0729575648371
314.2690033634892
325.59598077832885
339.3182813485603
355.702092609883
374.8426425209813
524.8083499709204
485.4692284530602
449.5704453949068
417.2423105246436
388.52227771346617
363.35554705501454
341.6058194875218
323.06969488133444
307.4941267011152
294.59394760534684
284.06855567951595
275.61749117304026
268.9539225834526
263.81563932788293
259.97397365941015
257.24031110435345
255.47083137350805
254.5695331761707
254.4899647279928
255.23575573931643
256.86001791744206
259.46352968587524
263.19158857070863
268.2292175400512
274.79476027915996
283.13166849241
293.49867185541723
306.15860089627614
321.36437177173605
339.3182729705826
360.21200653815265
491.21140226478263
452.43940386984735
417.2423061311938
385.70960740575106
357.8353686322259
333.5264165566042
312.6141414495386
294.87059029842754
280.0253569932293
267.78289409903044
257.83854104492207
249.89339709562205
243.66667157419988
238.90607886252823
235.39574335275162
232.96218455132447
231.47847611795908
230.8668491052294
231.10005920035888
232.20152688259432
234.24427453039743
237.3485547781352
241.67792607042844
247.43355702240112
254.84674367129193
264.16929742742957
275.66216079543636
289.58130450275115
306.1586187725384
325.5959936866378
348.05382726778333
460.98335444640276
422.92147428042534
388.5222475788242
357.83547290340675
330.8181844764646
307.34576019873913
287.22495901377386
270.2103000149498
256.0208603547864
244.3565802599137
234.91382923636618
227.39916785477004
221.54081974906174
217.09825678391474
213.8694180794392
211.6961869886438
210.46808753483305
210.12461333786675
210.65625566832034
212.10428983765934
214.55925157533335
218.15796644063906
223.0788092736016
229.53515414539237
237.76669557193017
248.02860830615234
260.5786520738705
275.6621528260881
293.4986658996085
314.2690032963882
338.1000198245725
434.16615776458264
396.9067848319631
363.35561967453924
333.52637657252365
307.3457429187583
284.66439815396166
265.2717832681963
248.91166280244693
235.29846143503315
224.13269587272296
215.115728568035
207.96233000324855
202.41162690374063
198.23573010361034
195.246566643295
193.30089666478196
192.30371366881087
192.21033453172768
193.02713979582134
194.81101742912588
197.66739018137227
201.7466021056861
207.23842377084188
214.36461419056837
223.36916646447403
234.50666180824922
248.0286028344803
264.1692992091372
283.1316742777994
305.07293445828117
330.09124971050903
410.706032088833
374.297624213382
341.6058825073701
312.61409106905654
287.22493314918745
265.2717734728483
246.53324178857548
230.74841929910323
217.6319226578778
206.88879841434215
198.22812157234577
191.37472681444333
186.07944660372414
182.12717459970392
179.34332931157397
177.59852612783854
176.81183741645089
176.95265117884503
178.041170384294
180.14751957959325
183.38931171553392
187.92739616767412
193.95972745038932
201.71305958448127
211.4324843396656
223.36916028287155
237.7666832702231
254.84672636785226
274.7947633856738
297.7465740655489
323.7769948391224
390.46936900062764
354.9224888959856
323.06961877674286
294.870537245092
270.21030868142776
248.91168780077018
230.74841108030137
215.45968178015767
202.76425040733676
192.37448999813395
184.00880973613243
177.4030103838774
172.31965531418703
168.55591205860088
165.9496798692674
164.3840873987807
163.79063465088518
164.1508616609979
165.4966389618614
167.90894741577583
171.51498159245972
176.48335577457567
183.0173643730238
191.34598255975038
201.71305465465244
214.36460621771238
229.5351597411699
247.43355959990453
268.2292016922504
292.0399275087877
318.9224625525326
373.2588162835064
338.55278304547267
307.494089541517
280.0253432083056
256.0208688319436
235.29843850602572
217.63191248373317
202.76427786803927
190.421203861437
180.3239917764621
172.20126608198944
165.79975889004248
160.89325827190996
157.29022772408726
154.83969799456318
153.43575481823518
153.02054679746095
153.58582300524472
155.1730129927207
157.87169581713576
161.81626248217634
167.18071202056083
174.1713443301197
183.01736944338248
193.95973298306163
207.23842600978898
223.0788084652666
241.67792120779168
263.19159076323484
287.7234642855949
315.3170296906551
358.8302920221426
324.9201972345403
294.59391874642466
267.7828836430053
244.35658956957332
224.13269600486234
206.8888114251375
192.37447915889084
180.32398347090538
170.46817952334604
162.54600515956255
156.31449945058108
151.55770608235463
148.09407332281896
145.78228310948856
144.52573163515046
144.27543006449767
145.03146423542552
146.8428580033547
149.80575430960678
154.05972750053638
159.7822012324984
167.1807078627694
176.4833560971165
187.9273945124972
201.74659877076064
218.15796178858832
237.34853465081733
259.46351450049605
284.59623415855515
312.7813731164267
346.9099576314305
313.73447155112405
284.0685331410431
257.8385565943699
234.91381232680473
215.11572916900764
198.2281349522174
184.00881427356347
172.20127495907886
162.54600361605992
154.79156603167988
148.70435107191648
144.07739582862195
140.73764456728068
138.55188934486836
137.43119686401386
137.33377362858167
138.2663249642521
140.28373613211772
143.48698022619516
148.01919226827286
154.05973682632356
161.81626402443624
171.51497777442336
183.3893055548936
197.66739078194996
214.5592496439145
234.2442721962764
256.8600234424323
282.49325430842435
311.1738254705901
337.21036278264313
304.6985917466885
275.6174930350733
249.8934147528936
227.39915092899696
207.9623449680333
191.37471807096856
177.40301426470063
165.79974592442306
156.31449795926426
148.70436252853807
142.74381846231304
138.233442062422
135.0072021297568
132.9384912062367
131.94450649990753
131.98915234320322
133.08426100484112
135.28912857864597
138.70821249087317
143.48698853005712
149.80575961734937
157.8716934100626
167.9089590243334
180.14753136371257
194.81103077413593
212.10428305951896
232.20151902321868
255.23575894517631
281.29058292939146
310.39466786413163
329.4458816660824
297.52360585323623
268.95393536244876
243.6666531683474
221.54082286139388
202.41164786712602
186.07944211874704
172.3196627170561
160.89325464326632
151.55771266411938
144.07738985329024
138.23343784783106
133.83245708091857
130.71401579936827
128.7566888046535
127.88247769384066
128.05969419743772
129.304090581374
131.67824295417094
135.2891191581924
140.28373354452089
146.84286569619834
155.17300453712178
165.4966363542149
178.04116664403742
193.0271352356489
210.65625389051905
231.10005770415398
254.489972553882
280.9094789235897
310.3891788623109
323.34451666071436
291.94042372594475
263.8156661477104
238.9060618758941
217.09826313352147
198.23571131374655
182.12717935721923
168.55590346360682
157.29022475607331
148.09408182652822
140.73763805950784
135.00720434108942
130.71401476838793
127.70192249945683
125.85343136886617
125.09424747325981
125.3960638467189
126.77764622001499
129.30408896712174
133.08426398463826
138.2663253117681
145.03146927009348
153.5858225084987
164.15086886812
176.95266162745432
192.21032895114368
210.1246073627659
230.8668430300398
254.56953481424233
281.31883688626147
311.1496201865478
318.6589779040806
287.7095344824621
259.97395296912146
235.39574011819286
213.8694430322971
195.2465640215367
179.3433428694073
165.94967706096767
154.83969656684735
145.78228151698409
138.55189012750336
132.93849416005804
128.75668726734185
125.85343375953663
124.11419364951283
123.4675054791908
123.88773170704424
125.39606248300798
128.05969133191363
131.98914968400214
137.33377422711467
144.27542747530677
153.02053828811123
163.79063281377307
176.81183507403128
192.30371268919683
210.46808602247913
231.47847593795868
255.47081306336838
282.536216069653
312.7157783866495
315.17465797403287
284.62827493193527
257.24029895222736
232.962191033344
211.69616773496261
193.30089713570038
177.59851179085433
164.3840901786743
153.43576059055357
144.52573106535664
137.43119881373423
131.94450060990602
127.88247910545837
125.09424491434349
123.46750562205993
122.9330501799011
123.46750647302457
125.09424606117344
127.8824817341017
131.94450347976482
137.43119578509615
144.52573651907016
153.43575570816665
164.3840966968902
177.5985192125895
193.30089072976807
211.69618229028947
232.96218020740295
257.24031709040867
284.6282423263582
315.1746606904326
312.7158072225327
282.5361950254016
255.47083880297293
231.4785004696786
210.46808239481737
192.30372997114873
176.8118362405382
163.7906435835837
153.02053849826152
144.27543597231752
137.33378183212156
131.98915022857108
128.05969942929832
125.39606363313642
123.88773265036312
123.46750714077854
124.11419506688246
125.85343033801973
128.75668918423332
132.93849035522376
138.5518854394927
145.78228345918353
154.8396894786828
165.94967793770462
179.34332952572797
195.2465688038252
213.86942245717674
235.39571790972613
259.9739715840947
287.70950324122236
318.6589805767081
311.14965301400576
281.31881697149595
254.56954627951782
230.8668259464564
210.12461397928473
192.21031983443558
176.95265366772674
164.15087429813698
153.58581582943725
145.03147284137557
138.26632161965563
133.0842606032898
129.3040872104287
126.77764479168212
125.3960651802634
125.09424778481451
125.85343193347805
127.7019244046134
130.71401685196736
135.00720181197784
140.7376423600588
148.09407747974504
157.29022994652746
168.55590930611623
182.12717315691995
198.23572320382735
217.09825209915599
238.90607594657976
263.8156318179765
291.9404196950851
323.3445477759104
310.38914341613764
280.9094918389778
254.4899846453605
231.1000400177313
210.6562613526114
193.02712612406592
178.04117018010612
165.49662894526506
155.17300821970454
146.84286943163565
140.2837296247987
135.28912581150618
131.6782411481489
129.30408916533085
128.05969403567602
127.8824777710688
128.75668658573866
130.7140174838365
133.83245492534928
138.23343560016775
144.07739360332877
151.55770978753498
160.89325935278558
172.3196562414724
186.07945242083315
202.41163683020991
221.5408111686042
243.66667856242904
268.95391526897146
297.52361524981296
329.44592476727144
310.39464855950484
281.29059479619394
255.23573899525144
232.2015255908662
212.10427215554114
194.81102135338728
180.14753736965807
167.90895115760804
157.87169758336603
149.8057551413591
143.48698443377904
138.70821014699058
135.28912658053912
133.0842636375566
131.9891521885964
131.94450654735832
132.93849246176595
135.00720350940017
138.2334399922019
142.74382174197547
148.70435869686153
156.31450199015111
165.799750368736
177.40300831881802
191.3747275685512
207.96233398702532
227.39916189825794
249.89338114454955
275.61748606416586
304.69861543741195
337.21041214724676
311.1738364880672
282.4932654839091
256.86000267257685
234.24427967351343
214.559239008727
197.6673946098825
183.38929695797435
171.51498204538356
161.81626841318857
154.0597321899122
148.01920050336324
143.48697794987518
140.28373426588072
138.2663243415362
137.3337731755485
137.4311958969482
138.5518904549555
140.73764284373257
144.07739400394996
148.704353871654
154.79156338526101
162.54600717489836
172.20126891919594
184.0088225245067
198.22812434675748
215.1157178187127
234.91383401337131
257.8385373389694
284.0685419887291
313.7345138333567
346.90986862053603
312.7813820466439
284.59621002924393
259.4635207004847
237.3485221499632
218.15795114512147
201.74660546709364
187.9273856741682
176.48336096910788
167.1807027510542
159.78219655414594
154.05972466164388
149.80575181150468
146.84286186394175
145.0314637211098
144.27542969393235
144.52573234873736
145.78228390011458
148.0940716710857
151.5577085054974
156.31449609958509
162.54600822367237
170.468182788361
180.32397784607204
192.37448670389068
206.88880094642036
224.13270506727076
244.35655878392384
267.78287848394416
294.59394605546277
324.92026521128463
358.8302500376351
315.3170596603538
287.72346212996996
263.191618950433
241.67792880757202
223.07883109957623
207.23843390419373
193.9597545042741
183.01739038154042
174.17135431178107
167.18073638427254
161.81627398465065
157.87170728827252
155.17302527622923
153.58583500047382
153.02055942925588
153.43576758290956
154.8397083043808
157.2902374220875
160.89327084444312
165.79976631849658
172.20127774738833
180.32399433325918
190.42121752487003
202.76427384103033
217.63190660317326
235.29846097830423
256.0208538179465
280.02535471868083
307.494136106524
338.5527099690029
373.2587855371494
318.9224600525549
292.03995751091696
268.2292102278843
247.43356912052224
229.5351872858829
214.364616012162
201.71307885443372
191.34599497943086
183.01737671617104
176.4833695123137
171.51499523029727
167.90896851434604
165.4966540131357
164.15087645839478
163.79065006756738
164.38410247600362
165.94969290918698
168.55592763027363
172.31966565064775
177.40302526201737
184.00882384880816
192.37449560982708
202.76426623263401
215.45968060744855
230.7484260175523
248.91166572789967
270.210309218308
294.8705677934952
323.069686819205
354.9224487983248
390.46935597307186
323.77698584047977
297.74659511239145
274.7947627638992
254.84674254055443
237.7666841056621
223.36917650299077
211.43250041237312
201.7130640114178
193.9597482465059
187.92740290505233
183.38931866558684
180.14752753205374
178.0411782113944
176.9526611091351
176.81184652649858
177.5985337100291
179.3433366071816
182.12718420560424
186.0794522642128
191.37473621205632
198.22812353252772
206.88881018110158
217.63191923616756
230.7484146078486
246.5332627217344
265.27176092095544
287.2249452239363
312.61413537479024
341.60581279344876
374.2975918574283
410.70603620506984
330.09125867148396
305.07292115611085
283.1316629820707
264.1693078922318
248.0285934821204
234.50666843820403
223.36916095814456
214.3646090923488
207.23842044754332
201.74659902424142
197.66739600557366
194.81101655972356
193.0271389425844
192.21033452407258
192.30371366237097
193.30089567624836
195.24656784654962
198.23572749894055
202.4116285178317
207.96233140553156
215.11572328741474
224.1327000319887
235.29845120986812
248.91166746420285
265.2717549371505
284.6643905592029
307.34576250570586
333.5264292059772
363.3555674398514
396.90674993110974
434.1661575008525
338.10001465063954
314.2689773594754
293.49865830361836
275.6621296765422
260.57864539326096
248.02860168389145
237.76667682869402
229.53515302965684
223.07879337532984
218.1579509406686
214.5592372049989
212.1042754883909
210.65624449992214
210.1246007485966
210.46807415987948
211.6961736590906
213.86940675260297
217.09824253723355
221.54080900036215
227.39915114868825
234.913821445958
244.35655946227703
256.0208388223406
270.2103016516289
287.2249300929265
307.3457530915904
330.81820531185537
357.83538362990134
388.5221865587198
422.9214369077931
460.98334346714836
348.05384363780627
325.596012498403
306.15865837133435
289.58132533219975
275.66219762407815
264.16932138680454
254.84676784418073
247.43358271700725
241.6779518603231
237.34858997655542
234.24430239094536
232.20155459211168
231.100087509589
230.8668772443467
231.4785035191256
232.96221332250866
235.39576864686478
238.90610728292546
243.66669918208234
249.8934181915508
257.83856955763264
267.782908624139
280.0253833948571
294.87058475471775
312.6141522065308
333.52644869441707
357.83542621283306
385.70955945385435
417.2422634477903
452.43937808533457
491.21140969886824
360.21201900634856
339.3183057735424
321.3643881754638
306.1586332026934
293.4987037358473
283.13168779144246
274.79479726320886
268.22923940323176
263.1916107195111
259.46355276503243
256.8600408297141
255.2357821136048
254.48998907063367
254.56955682321944
255.4708548218086
257.24033578736464
259.97399540784403
263.8156635442145
268.9539408890028
275.61751649674414
284.0685682253681
294.59395814292003
307.4941564979978
323.0696943240395
341.6058358176201
363.3555848459252
388.52220671914455
417.24225718343365
449.5704018808947
485.4691968053799
524.8083479605647
374.8426458930744
355.7021142831532
339.3182829701917
325.5959976136409
314.2690072684598
305.0729616101488
297.74657963753384
292.03995329248846
287.7234691977709
284.59625911199174
282.49325503166443
281.2905879616228
280.9095095498031
281.3188418406024
282.53622785737986
284.6282618297958
287.70952865061975
291.94043300451165
297.5236217462707
304.69862732884616
313.7345206038253
324.92026844449475
338.552726136215
354.9224504762397
374.29760089180445
396.90676269741044
422.92145180822064
452.4393745633468
485.46918777328307
521.9163469252004
561.6142671371161
392.3539063268772
374.8426173881739
360.2120025368475
348.05384312737857
338.10001036114136
330.0912620891374
323.7769847506618
318.9224729232943
315.3170090071952
312.7813789311548
311.1738387062083
310.3946540028624
310.389174330185
311.14962113544135
312.7157853480958
315.1746585742811
318.6589845286584
323.34454438304306
329.44591706863645
337.2104108122818
346.9098669067865
358.8302465957588
373.258786549394
390.4693443836726
410.70602519979974
434.16614943208407
460.9833506866939
491.21139575615564
524.8083247643333
561.6142519894503
601.1103652873494
