# vtk DataFile Version 2.0
Unstructured Grid Example
ASCII
DATASET UNSTRUCTURED_GRID

POINTS 961 float
0.150000006 -0.00839745998 0
0.146666661 -0.00839745998 0
0.143333331 -0.00839745998 0
0.140000001 -0.00839745998 0
0.13666667 -0.00839745998 0
0.13333334 -0.00839745998 0
0.129999995 -0.00839745998 0
0.126666665 -0.00839745998 0
0.123333335 -0.00839745998 0
0.119999997 -0.00839745998 0
0.116666667 -0.00839745998 0
0.113333337 -0.00839745998 0
0.109999999 -0.00839745998 0
0.106666669 -0.00839745998 0
0.103333332 -0.00839745998 0
0.100000001 -0.00839745998 0
0.0966666639 -0.00839745998 0
0.0933333337 -0.00839745998 0
0.0900000036 -0.00839745998 0
0.086666666 -0.00839745998 0
0.0833333358 -0.00839745998 0
0.0799999982 -0.00839745998 0
0.0766666681 -0.00839745998 0
0.0733333305 -0.00839745998 0
0.0700000003 -0.00839745998 0
0.0666666701 -0.00839745998 0
0.0633333325 -0.00839745998 0
0.0599999987 -0.00839745998 0
0.0566666685 -0.00839745998 0
0.0533333346 -0.00839745998 0
0.0500000007 -0.00839745998 0
0.148333326 -0.0112842107 0
0.144999996 -0.0112842107 0
0.141666666 -0.0112842107 0
0.138333336 -0.0112842107 0
0.135000005 -0.0112842107 0
0.13166666 -0.0112842107 0
0.12833333 -0.0112842107 0
0.125 -0.0112842107 0
0.12166667 -0.0112842107 0
0.118333332 -0.0112842107 0
0.115000002 -0.0112842107 0
0.111666664 -0.0112842107 0
0.108333334 -0.0112842107 0
0.104999997 -0.0112842107 0
0.101666667 -0.0112842107 0
0.0983333364 -0.0112842107 0
0.0949999988 -0.0112842107 0
0.0916666687 -0.0112842107 0
0.088333331 -0.0112842107 0
0.0850000009 -0.0112842107 0
0.0816666633 -0.0112842107 0
0.0783333331 -0.0112842107 0
0.075000003 -0.0112842107 0
0.0716666654 -0.0112842107 0
0.0683333352 -0.0112842107 0
0.0649999976 -0.0112842107 0
0.0616666675 -0.0112842107 0
0.0583333336 -0.0112842107 0
0.0549999997 -0.0112842107 0
0.0516666658 -0.0112842107 0
0.0483333319 -0.0112842107 0
0.146666661 -0.0141709624 0
0.143333331 -0.0141709624 0
0.140000001 -0.0141709624 0
0.13666667 -0.0141709624 0
0.13333334 -0.0141709624 0
0.129999995 -0.0141709624 0
0.126666665 -0.0141709624 0
0.123333335 -0.0141709624 0
0.119999997 -0.0141709624 0
0.116666667 -0.0141709624 0
0.113333337 -0.0141709624 0
0.109999999 -0.0141709624 0
0.106666669 -0.0141709624 0
0.103333332 -0.0141709624 0
0.100000001 -0.0141709624 0
0.0966666639 -0.0141709624 0
0.0933333337 -0.0141709624 0
0.0900000036 -0.0141709624 0
0.086666666 -0.0141709624 0
0.0833333358 -0.0141709624 0
0.0799999982 -0.0141709624 0
0.0766666681 -0.0141709624 0
0.0733333305 -0.0141709624 0
0.0700000003 -0.0141709624 0
0.0666666701 -0.0141709624 0
0.0633333325 -0.0141709624 0
0.0599999987 -0.0141709624 0
0.0566666685 -0.0141709624 0
0.0533333346 -0.0141709624 0
0.0500000007 -0.0141709624 0
0.0466666669 -0.0141709624 0
0.144999996 -0.0170577131 0
0.141666666 -0.0170577131 0
0.138333336 -0.0170577131 0
0.135000005 -0.0170577131 0
0.13166666 -0.0170577131 0
0.12833333 -0.0170577131 0
0.125 -0.0170577131 0
0.12166667 -0.0170577131 0
0.118333332 -0.0170577131 0
0.115000002 -0.0170577131 0
0.111666664 -0.0170577131 0
0.108333334 -0.0170577131 0
0.104999997 -0.0170577131 0
0.101666667 -0.0170577131 0
0.0983333364 -0.0170577131 0
0.0949999988 -0.0170577131 0
0.0916666687 -0.0170577131 0
0.088333331 -0.0170577131 0
0.0850000009 -0.0170577131 0
0.0816666633 -0.0170577131 0
0.0783333331 -0.0170577131 0
0.075000003 -0.0170577131 0
0.0716666654 -0.0170577131 0
0.0683333352 -0.0170577131 0
0.0649999976 -0.0170577131 0
0.0616666675 -0.0170577131 0
0.0583333336 -0.0170577131 0
0.0549999997 -0.0170577131 0
0.0516666658 -0.0170577131 0
0.0483333319 -0.0170577131 0
0.0450000018 -0.0170577131 0
0.143333331 -0.0199444648 0
0.140000001 -0.0199444648 0
0.13666667 -0.0199444648 0
0.13333334 -0.0199444648 0
0.129999995 -0.0199444648 0
0.126666665 -0.0199444648 0
0.123333335 -0.0199444648 0
0.119999997 -0.0199444648 0
0.116666667 -0.0199444648 0
0.113333337 -0.0199444648 0
0.109999999 -0.0199444648 0
0.106666669 -0.0199444648 0
0.103333332 -0.0199444648 0
0.100000001 -0.0199444648 0
0.0966666639 -0.0199444648 0
0.0933333337 -0.0199444648 0
0.0900000036 -0.0199444648 0
0.086666666 -0.0199444648 0
0.0833333358 -0.0199444648 0
0.0799999982 -0.0199444648 0
0.0766666681 -0.0199444648 0
0.0733333305 -0.0199444648 0
0.0700000003 -0.0199444648 0
0.0666666701 -0.0199444648 0
0.0633333325 -0.0199444648 0
0.0599999987 -0.0199444648 0
0.0566666685 -0.0199444648 0
0.0533333346 -0.0199444648 0
0.0500000007 -0.0199444648 0
0.0466666669 -0.0199444648 0
0.043333333 -0.0199444648 0
0.141666666 -0.0228312165 0
0.138333336 -0.0228312165 0
0.135000005 -0.0228312165 0
0.13166666 -0.0228312165 0
0.12833333 -0.0228312165 0
0.125 -0.0228312165 0
0.12166667 -0.0228312165 0
0.118333332 -0.0228312165 0
0.115000002 -0.0228312165 0
0.111666664 -0.0228312165 0
0.108333334 -0.0228312165 0
0.104999997 -0.0228312165 0
0.101666667 -0.0228312165 0
0.0983333364 -0.0228312165 0
0.0949999988 -0.0228312165 0
0.0916666687 -0.0228312165 0
0.088333331 -0.0228312165 0
0.0850000009 -0.0228312165 0
0.0816666633 -0.0228312165 0
0.0783333331 -0.0228312165 0
0.075000003 -0.0228312165 0
0.0716666654 -0.0228312165 0
0.0683333352 -0.0228312165 0
0.0649999976 -0.0228312165 0
0.0616666675 -0.0228312165 0
0.0583333336 -0.0228312165 0
0.0549999997 -0.0228312165 0
0.0516666658 -0.0228312165 0
0.0483333319 -0.0228312165 0
0.0450000018 -0.0228312165 0
0.0416666679 -0.0228312165 0
0.140000001 -0.0257179681 0
0.13666667 -0.0257179681 0
0.13333334 -0.0257179681 0
0.129999995 -0.0257179681 0
0.126666665 -0.0257179681 0
0.123333335 -0.0257179681 0
0.119999997 -0.0257179681 0
0.116666667 -0.0257179681 0
0.113333337 -0.0257179681 0
0.109999999 -0.0257179681 0
0.106666669 -0.0257179681 0
0.103333332 -0.0257179681 0
0.100000001 -0.0257179681 0
0.0966666639 -0.0257179681 0
0.0933333337 -0.0257179681 0
0.0900000036 -0.0257179681 0
0.086666666 -0.0257179681 0
0.0833333358 -0.0257179681 0
0.0799999982 -0.0257179681 0
0.0766666681 -0.0257179681 0
0.0733333305 -0.0257179681 0
0.0700000003 -0.0257179681 0
0.0666666701 -0.0257179681 0
0.0633333325 -0.0257179681 0
0.0599999987 -0.0257179681 0
0.0566666685 -0.0257179681 0
0.0533333346 -0.0257179681 0
0.0500000007 -0.0257179681 0
0.0466666669 -0.0257179681 0
0.043333333 -0.0257179681 0
0.0399999991 -0.0257179681 0
0.138333336 -0.0286047198 0
0.135000005 -0.0286047198 0
0.13166666 -0.0286047198 0
0.12833333 -0.0286047198 0
0.125 -0.0286047198 0
0.12166667 -0.0286047198 0
0.118333332 -0.0286047198 0
0.115000002 -0.0286047198 0
0.111666664 -0.0286047198 0
0.108333334 -0.0286047198 0
0.104999997 -0.0286047198 0
0.101666667 -0.0286047198 0
0.0983333364 -0.0286047198 0
0.0949999988 -0.0286047198 0
0.0916666687 -0.0286047198 0
0.088333331 -0.0286047198 0
0.0850000009 -0.0286047198 0
0.0816666633 -0.0286047198 0
0.0783333331 -0.0286047198 0
0.075000003 -0.0286047198 0
0.0716666654 -0.0286047198 0
0.0683333352 -0.0286047198 0
0.0649999976 -0.0286047198 0
0.0616666675 -0.0286047198 0
0.0583333336 -0.0286047198 0
0.0549999997 -0.0286047198 0
0.0516666658 -0.0286047198 0
0.0483333319 -0.0286047198 0
0.0450000018 -0.0286047198 0
0.0416666679 -0.0286047198 0
0.038333334 -0.0286047198 0
0.13666667 -0.0314914696 0
0.13333334 -0.0314914696 0
0.129999995 -0.0314914696 0
0.126666665 -0.0314914696 0
0.123333335 -0.0314914696 0
0.119999997 -0.0314914696 0
0.116666667 -0.0314914696 0
0.113333337 -0.0314914696 0
0.109999999 -0.0314914696 0
0.106666669 -0.0314914696 0
0.103333332 -0.0314914696 0
0.100000001 -0.0314914696 0
0.0966666639 -0.0314914696 0
0.0933333337 -0.0314914696 0
0.0900000036 -0.0314914696 0
0.086666666 -0.0314914696 0
0.0833333358 -0.0314914696 0
0.0799999982 -0.0314914696 0
0.0766666681 -0.0314914696 0
0.0733333305 -0.0314914696 0
0.0700000003 -0.0314914696 0
0.0666666701 -0.0314914696 0
0.0633333325 -0.0314914696 0
0.0599999987 -0.0314914696 0
0.0566666685 -0.0314914696 0
0.0533333346 -0.0314914696 0
0.0500000007 -0.0314914696 0
0.0466666669 -0.0314914696 0
0.043333333 -0.0314914696 0
0.0399999991 -0.0314914696 0
0.0366666652 -0.0314914696 0
0.135000005 -0.0343782231 0
0.13166666 -0.0343782231 0
0.12833333 -0.0343782231 0
0.125 -0.0343782231 0
0.12166667 -0.0343782231 0
0.118333332 -0.0343782231 0
0.115000002 -0.0343782231 0
0.111666664 -0.0343782231 0
0.108333334 -0.0343782231 0
0.104999997 -0.0343782231 0
0.101666667 -0.0343782231 0
0.0983333364 -0.0343782231 0
0.0949999988 -0.0343782231 0
0.0916666687 -0.0343782231 0
0.088333331 -0.0343782231 0
0.0850000009 -0.0343782231 0
0.0816666633 -0.0343782231 0
0.0783333331 -0.0343782231 0
0.075000003 -0.0343782231 0
0.0716666654 -0.0343782231 0
0.0683333352 -0.0343782231 0
0.0649999976 -0.0343782231 0
0.0616666675 -0.0343782231 0
0.0583333336 -0.0343782231 0
0.0549999997 -0.0343782231 0
0.0516666658 -0.0343782231 0
0.0483333319 -0.0343782231 0
0.0450000018 -0.0343782231 0
0.0416666679 -0.0343782231 0
0.038333334 -0.0343782231 0
0.0350000001 -0.0343782231 0
0.13333334 -0.0372649729 0
0.129999995 -0.0372649729 0
0.126666665 -0.0372649729 0
0.123333335 -0.0372649729 0
0.119999997 -0.0372649729 0
0.116666667 -0.0372649729 0
0.113333337 -0.0372649729 0
0.109999999 -0.0372649729 0
0.106666669 -0.0372649729 0
0.103333332 -0.0372649729 0
0.100000001 -0.0372649729 0
0.0966666639 -0.0372649729 0
0.0933333337 -0.0372649729 0
0.0900000036 -0.0372649729 0
0.086666666 -0.0372649729 0
0.0833333358 -0.0372649729 0
0.0799999982 -0.0372649729 0
0.0766666681 -0.0372649729 0
0.0733333305 -0.0372649729 0
0.0700000003 -0.0372649729 0
0.0666666701 -0.0372649729 0
0.0633333325 -0.0372649729 0
0.0599999987 -0.0372649729 0
0.0566666685 -0.0372649729 0
0.0533333346 -0.0372649729 0
0.0500000007 -0.0372649729 0
0.0466666669 -0.0372649729 0
0.043333333 -0.0372649729 0
0.0399999991 -0.0372649729 0
0.0366666652 -0.0372649729 0
0.0333333351 -0.0372649729 0
0.13166666 -0.0401517227 0
0.12833333 -0.0401517227 0
0.125 -0.0401517227 0
0.12166667 -0.0401517227 0
0.118333332 -0.0401517227 0
0.115000002 -0.0401517227 0
0.111666664 -0.0401517227 0
[...]
POINT_DATA 961
SCALARS Temp float 1
LOOKUP_TABLE default
520.3538833024996
476.4964964221867
436.9173123046514
402.30749399244
372.72133894568015
347.9853958807736
327.75809768799644
311.58117947162106
298.92800191851444
289.2485204133701
282.0064924765358
276.70722987392986
272.9157464685922
270.26590470606124
268.46232520175215
267.27752429707675
266.54640629670337
266.1603217400696
266.06227042581725
266.2443602413466
266.7479837259386
267.6665283304764
269.1497628377662
271.40849044368184
274.7174482075482
279.41448525309875
285.89409045300977
294.59452419136744
305.9804233991254
320.5294112467385
338.8906067173362
476.49650890606875
432.96323609802516
394.53812164478836
361.30707572980555
333.1926203360541
309.9242443503336
291.0870105442348
276.1705324329956
264.6172728745145
255.8646541306405
249.37882518413267
244.67831310433635
241.34823277556464
239.04591677492155
237.5004396465612
236.50816620009672
235.9267583906927
235.66952024242372
235.70150211241423
236.03821351676427
236.74709394684555
237.95122777060746
239.8341586260888
242.64400996406465
246.69479259832602
252.3628614163563
260.0767529102606
270.30039571895895
283.51117224040223
300.1819341219175
320.529430919962
436.91726509886763
394.53809758662806
357.46067899561444
325.68712347771475
299.0325696785783
277.14949695018294
259.56974686035545
245.7512343187771
235.12344552272995
227.12595729591337
221.23781429491692
216.99735511151667
214.01283977471982
211.96550462882314
210.60748018532746
209.7566758106444
209.29094510840793
209.14317210460936
209.2985172867138
209.79436718842496
210.72287687812616
212.23529107892676
214.5466217232958
217.93862489831014
222.75895234538277
229.4142719117933
238.35588587440108
250.0572632414132
264.98189636725346
283.51116337972474
305.98043535094416
402.3074301463539
361.30703729367383
325.68712063959475
295.36933688015876
270.09644453211604
249.46832063708226
232.98460964827115
220.09015627746888
210.21632617206973
202.81546281170168
197.38616685408996
193.48967157387128
190.75768279722965
188.89387842017737
187.67094571518456
186.92553520500343
186.55301837341537
186.50357056542995
186.78057527888618
187.44164336496996
188.60188484133764
190.4384010573586
193.19427921087373
197.1799519796427
202.76971861433597
210.3911979440198
220.50653706921443
233.5839584261969
250.05728075317919
270.300408973294
294.594515739506
372.72127227785757
333.19257925275616
299.03254377688177
270.09653791056627
246.07738759309532
226.54406863874803
210.98329671146504
198.84179010934199
189.56368250377676
182.62067573342563
177.53405165606964
173.8882211288714
171.3368176143059
169.6033345270573
168.47805295647026
167.81348661944062
167.51998354453153
167.5628741627803
167.96189884969425
168.79303036683825
170.19210850825883
172.35905642943052
175.56076932909485
180.13056912790105
186.4618762793805
194.99423758112232
206.1906932570245
220.50652929563424
238.35588024389102
260.0767522536565
285.8940954296211
347.985322492224
309.92429427193446
277.14956204771454
249.46828290122968
226.54405289281587
207.93324642047227
193.12487215180374
181.57841741668366
172.7574281317213
166.15613625928722
161.3188361688133
157.85147148930844
155.42696421410207
153.78552360416018
152.73201136697915
152.1321032121246
151.90882882845045
152.04068866689755
152.56189169107626
153.5646703915112
155.20293907117355
157.69586628481295
161.32942892204025
166.4538251689516
173.4744817692503
182.83540760163223
194.99423288576827
210.3911995838317
229.4142783297248
252.36283856923671
279.41448270573704
327.7581137806613
291.087042022886
259.56980478164974
232.98456360968328
210.9832750447779
193.12486482749156
178.9112801236763
167.82157826556102
159.34173599992224
152.98886787497855
148.3286236779416
144.9858089333708
142.64945493569064
141.07339293960325
140.07427273128252
139.52853197431122
139.36984353062695
139.58801313229517
140.22978295132734
141.40135226964642
143.27175947928245
146.07558638386703
150.11313072431295
155.74585943553348
163.38531112026038
173.47447629589604
186.46186532885707
202.76970316048724
222.75895359414574
246.69479169486553
274.7174560895903
311.5811972707942
276.17056330722636
245.75116479899384
220.09011081816084
198.84179439433407
181.57843657012853
167.82157250525694
157.07281977833637
148.84094518006737
142.66433543418594
138.12718603825198
134.87001822745972
132.59478546322535
131.0660960215186
130.10994173512302
129.61147088277585
129.51319296649547
129.81445207094683
130.57255720030554
131.90527468658226
133.99372637444577
137.08416755502532
141.48681845711184
147.5696596015374
155.74585555182338
166.45381908629003
180.13057320424315
197.1799540630164
217.9386090775373
242.64398989454273
271.4084790497524
298.92801053246296
264.6173084817727
235.12340337585027
210.21630940597976
189.56368802923012
172.7574105956929
159.3417293716158
148.84096322296702
140.7850633991516
134.73086836391315
130.27795596697467
127.07932698161015
124.84698777809527
123.35386542039899
122.4332318716689
121.97720932019878
121.9355358157457
122.31542432097845
123.18281523114085
124.66466437931835
126.9512605298609
130.2971356534325
135.01869830804844
141.4868223579564
150.11313401588524
161.32942978056332
175.5607681070066
193.19427446859993
214.54662471068676
239.83416758152705
269.14978222751273
289.2485663759215
255.86458917618782
227.1259300166877
202.815455329438
182.6206875228525
166.15613527423682
152.98887774156097
142.6643291016941
134.73086351869225
128.7604449564839
124.36486913217645
121.20666969625667
119.0054431757842
117.54039160699195
116.65039404685253
116.2330809255143
116.24398847196848
116.6966426395895
117.66377925818166
119.27932616356559
121.74015424371169
125.30619822582732
130.29713250505503
137.0841674890829
146.0755853037102
157.69586414791254
172.35905373629956
190.43838110785867
212.2352755702431
237.95121052195717
267.66652028246733
282.0065617234134
249.3787728401159
221.23779552035728
197.38617671023607
177.53403629880162
161.31883692628017
148.32863510498743
138.12718799908345
130.2779612616221
124.36486832227867
120.00893549814076
116.87976744773522
114.70252990904206
113.2610471484972
112.39845304204167
112.01664933508502
112.0757203906961
112.59409842227686
113.64965890790891
115.38135845094156
117.99049596635317
121.74015996578672
126.95126159605164
133.99372351230934
143.27175496478347
155.20293851751944
170.19210586664877
188.60188255512452
210.72288248009957
236.7471017948304
266.747971292725
276.70716879055266
244.6782814377713
216.9973532966337
193.48968606958354
173.88820693767826
157.85148031515277
144.98580099197272
134.8700204363362
127.07931826538851
121.2066690433473
116.879773261105
113.77328902945229
111.61632879350954
110.19606144519344
109.35878679483847
109.00964334654327
109.11219062965034
109.68854589288465
110.82031250863326
112.64990078177225
115.38136331984005
119.27932934740372
124.66466268533274
131.90528233439954
141.40136078402034
153.56468131669905
168.79302397634942
187.44163601339307
209.7943695373053
236.03821632245612
266.2443740986553
272.91571364333595
241.34822223743197
214.01285490871155
190.7576647670175
171.3368198110587
155.42698212347722
142.6494522418804
132.59479229344683
124.84698454349721
119.0054470110581
114.7025267464856
111.61632667595475
109.47862236977443
108.07893358683758
107.26585163659756
106.94692406822375
107.08829424066919
107.71476737619054
108.91054899936327
110.8203074289663
113.64965741739802
117.66378383259382
123.1828092043466
130.572555171
140.22977995566734
152.56188788611036
167.96189691819427
186.78057358004133
209.29852473939317
235.70147920208868
266.0622747112049
270.26587610395757
239.0459140786312
211.96552899392464
188.89386255053356
169.60333976222677
153.78550952357588
141.0733950243888
131.06608927966465
123.35386304885748
117.54039693090014
113.26104362153501
110.19606213648252
108.07893304200503
106.7007575805239
105.91173420329652
105.62118038447824
105.7971327135257
106.46632863836487
107.71476651698539
109.6885474277338
112.59409843300745
116.69664556029667
122.31542379979047
129.81445724894832
139.58802115042695
152.040683726732
167.56286855846588
186.50356458594112
209.1431740697955
235.66952396582727
266.1603205930655
268.46232094152634
237.50045683528208
210.60746255923831
187.67094505259854
168.47807424464466
152.73200896478704
140.07428373891184
130.109940187203
122.43323144782005
116.65039293432206
112.39845332312028
109.35878831419923
107.26585094628969
105.91173521971575
105.14777428896666
104.88459423723764
105.09165844946041
105.79713205460438
107.08829277264391
109.1121890604934
112.0757205528155
116.2439866419562
121.93552990708812
129.51319134078972
139.36984109608133
151.90882736999228
167.51998240458596
186.5530180630271
209.2909271037799
235.9267547967059
266.5463981443543
267.277523562197
236.50818769888716
209.75666269813482
186.92554008675555
167.81346976335618
152.13210351004204
139.52852134989155
129.61147225097798
121.97721276160975
116.23308030175609
112.01665030845251
109.00963996163276
106.946924592599
105.6211791501697
104.88459429759335
104.64884934851585
104.88459468885992
105.62117969184568
106.94692597789485
109.00964152574802
112.01664868530405
116.23308388191747
121.97720956722043
129.61147720824715
139.52852724044126
152.13209858989205
167.81348257166556
186.9255304148471
209.75668072132646
236.50815519015063
267.27752553594644
266.5464288518617
235.92673496576788
209.29095276414196
186.55304159855737
167.51997944006231
151.90884216495334
139.3698420966327
129.5131991018429
121.93553010197195
116.2439918372958
112.07572491304933
109.11218931655509
107.0882967824075
105.79713258550954
105.09165887701997
104.88459498340424
105.14777491604977
105.91173364348319
107.26585176786239
109.35878611660334
112.39845041107978
116.6503935939546
122.43322620060962
130.1099399936027
140.07427227329322
152.73201172893258
168.47805460690046
187.67092289230652
210.60747748071265
237.5004228040968
268.46231874439167
266.16035316612175
235.6695031118433
209.14318485362708
186.50354843212034
167.5628739045812
152.04067579728854
139.58801449333788
129.8144610881779
122.315418944456
116.6966476557492
112.59409621237153
109.6885454655328
107.7147656173663
106.46632792744282
105.79713337235393
105.62118051831423
105.91173444280633
106.7007584878503
108.07893406211124
110.19606090133169
113.26104615541702
117.54039432852913
123.35386663126638
131.06609350386952
141.07339061198167
153.78551925523746
169.6033305322474
188.89387588117287
211.96549634906424
239.0459097030663
270.2659052623231
266.0622378873215
235.7014919094328
209.29853626983697
186.78055623277663
167.96190330160536
152.56187974531102
140.22978231168358
130.57254951410732
123.1828114628895
117.66378610896663
113.64965501574994
110.82031099592571
108.91054804572175
107.71476665289222
107.08829413211934
106.94692406114588
107.26585078810936
108.07893436831569
109.478621384653
111.61632563750392
114.70252882968491
119.00544544857087
124.84698774886905
132.59478780144607
142.64946043518145
155.4269734270415
171.33681036997015
190.7576878624821
214.01283690702564
241.34823208456305
272.91575712256355
266.2443535241389
236.03822782857998
209.79434932576123
187.4416414820454
168.79301370322494
153.5646727591922
141.40136537364893
131.9052760768225
124.6646653810471
119.27932640554201
115.38136071918794
112.64989948472333
110.82031142606886
109.6885472364495
109.11219057137083
109.00964334095046
109.35878732747588
110.19606203956418
111.61632788648464
113.77329076793731
116.87977121202577
121.20667161077839
127.07932124097572
134.87001668395612
144.98580836772157
157.85147213126174
173.88821743833216
193.4896570763993
216.99734890939138
244.6783080705167
276.70722680717495
266.7479817420218
236.74711248748963
210.7228608214226
188.6018892524574
170.19209566196656
155.20294127411555
143.27174782554522
133.9937263998227
126.95126456197461
121.74015686105409
117.99050081637517
115.38135720001894
113.64965790405975
112.59409807895231
112.07572008908414
112.01664911247956
112.39845354283955
113.2610464431744
114.70252919949417
116.87976886917966
120.0089342434165
124.36487060694462
130.27795761159092
138.12719428365048
148.32862777866472
161.3188290845993
177.53405588405988
197.3861622954474
221.2378079060478
249.37882131332046
282.00648634907105
267.66652828624143
237.95118470233257
212.23528097849768
190.43836861316146
172.3590434219708
157.69586971489858
146.0755777256981
137.08417097491932
130.29712888433858
125.30619501386951
121.74015255991914
119.27932469561162
117.66378133247353
116.69664246995613
116.24398828886915
116.23308118724661
116.65039432922404
117.54039098936595
119.00544435345387
121.20666815887957
124.36487101733091
128.7604470671036
134.7308605388226
142.66433485911307
152.98887109982616
166.1561443499088
182.62066391300573
202.81545467051455
227.12596130262565
255.86466295147568
289.24853372529077
269.14981183793725
239.83416267539803
214.54665083372066
193.19427940008458
175.56078670507358
161.32943503051678
150.11315019960807
141.48683764740306
135.0187052094231
130.29715197086335
126.95126861316234
124.6646723436065
123.18282362749734
122.31543247026583
121.93554466546452
121.97721799858799
122.43323951456523
123.35387285020042
124.84699621929906
127.07933299241424
130.2779639427336
134.7308710327215
140.7850727508688
148.84096052671953
159.34172505045998
172.75742765259326
189.56367548342834
210.2163201199743
235.12344816277667
264.6172387101709
298.92798140070613
271.4084746483125
242.64401864216907
217.93861511212282
197.17996074435086
180.13059679436617
166.45382601676883
155.7458744868466
147.56966906756176
141.48682768868588
137.0841779553357
133.99373656647447
131.90528923180742
130.57256850236928
129.81446309950022
129.5132042019764
129.61148192538582
130.10995213614578
131.06610731466606
132.59479449043553
134.87002931128046
138.1271965426382
142.6643413308019
148.8409568734384
157.0728203576976
167.82158460578668
181.57841973778932
198.84179581500064
220.09013910081126
245.75122858828536
276.1705246857913
311.5811823550308
274.71744446018886
246.69481238038549
222.75895138825794
202.76971756152716
186.4618652930217
173.47448979617909
163.38532426482715
155.74586315409078
150.11314613446288
146.0755922576222
143.27176539011938
141.4013587782718
140.22978924956
139.58802093572265
139.36985075783807
139.5285385721141
140.0742793876095
141.07340030424953
142.6494607163236
144.9858163916508
148.32862744058517
152.9888771293832
159.3417360421785
167.82157757597003
178.91129748913553
193.12485755581207
210.98328806745383
232.98460608599873
259.5697408727654
291.08701133525744
327.758116392835
279.4144914570771
252.36282411399907
229.41426636700433
210.39120802303978
194.99422399684522
182.83541331457977
173.47447746564626
166.45382126409802
161.32942673987168
157.6958642086205
155.20294259099714
153.5646702422374
152.56189136254346
152.04068864423127
151.9088287526163
152.13210306056948
152.73201193046344
153.78552284379933
155.42696535285245
157.85147248375313
161.3188342404015
166.15613950034415
172.75742309361425
181.57842250289468
193.12485336718981
207.9332434973467
226.54407308390202
249.4683329702714
277.14951504154396
309.92426078856795
347.9853213485719
285.89409109247754
260.0767257069669
238.35587318825708
220.506507315287
206.1906869414009
194.9942314012851
186.46185994548108
180.13056633685497
175.56075609959382
172.35904341796126
170.19209624868532
168.7930179448256
167.9618885701725
167.56286305835016
167.51997209976943
167.8134754686489
168.4780423442907
169.6033229550322
171.3368075839612
173.88820864473473
177.5340438463327
182.62066087175148
189.56366757783235
198.8417904337211
210.98327578373045
226.5440646249652
246.07740775519542
270.0964577486789
299.0324869821776
333.19254270360693
372.7212612381751
294.5945310519239
270.3004267319147
250.05732001713372
233.58397850980936
220.5065720297591
210.3912214706634
202.76974217295276
197.1799769658707
193.19430407330012
190.43843204678876
188.60191165103615
187.44166984311084
186.78060193031914
186.50359707113415
186.55304496663237
186.92556210278738
187.67097151069754
188.89390546819223
190.75770924566407
193.48969527080183
197.38619400846162
202.81548206629353
210.2163523973673
220.09015994268384
232.98462419058413
249.46835158724735
270.09649659999747
295.3692920940305
325.6870765555003
361.3070069504644
402.30743404182596
305.98044751539203
283.5111969976933
264.981913079829
250.05729512633025
238.35591706009922
229.41429182385377
222.7589861421472
217.9386474830949
214.546644350875
212.23531429530445
210.72289973795185
209.79439237740738
209.29854139473707
209.1431958912423
209.2909691295644
209.75669998091993
210.60750336700175
211.9655287079059
214.01286146171103
216.99737994502354
221.23783225822353
227.12597404753453
235.12347358897375
245.75124118399643
259.5697652719679
277.1495321776327
299.03250665318546
325.68707232706026
357.4606330501116
394.53806104860826
436.91725934849507
320.5294342054826
300.18195685624954
283.51117428809215
270.30041243035845
260.076757978624
252.3628665712843
246.69479922504246
242.64401660279836
239.83417182571503
237.95123669199123
236.74710244603514
236.03822223716318
235.70151076088374
235.66952923382814
235.9267675985015
236.50817463955542
237.5004492533623
239.04592589385163
241.34823982546192
244.67832326326914
249.37882858418791
255.86466362188733
264.61726228762285
276.17053101657586
291.08702249231465
309.9242733455026
333.1925566513268
361.3070059938964
394.53805224172766
432.9631741388835
476.4964153270958
338.8906225091146
320.52940524314704
305.98043152856866
294.5945314586381
285.89408605024045
279.41449471820357
274.7174463533897
271.40848942472354
269.14976230872827
267.6665267626432
266.747984806814
266.2443601238858
266.06227038489317
266.1603218417525
266.5464065152262
267.27752387084905
268.4623252063823
270.26590318608123
272.9157476440181
276.7072250331055
282.0064866787279
289.2485250735988
298.9279878421448
311.581175034022
327.75810684736257
347.9853139401706
372.72126686864084
402.3074207335254
436.9172349119115
476.49639871508674
520.3535019849727
