# vtk DataFile Version 2.0
Unstructured Grid Example
ASCII
DATASET UNSTRUCTURED_GRID

POINTS 961 float
0.150000006 -0.00839745998 0
0.146666661 -0.00839745998 0
0.143333331 -0.00839745998 0
0.140000001 -0.00839745998 0
0.13666667 -0.00839745998 0
0.13333334 -0.00839745998 0
0.129999995 -0.00839745998 0
0.126666665 -0.00839745998 0
0.123333335 -0.00839745998 0
0.119999997 -0.00839745998 0
0.116666667 -0.00839745998 0
0.113333337 -0.00839745998 0
0.109999999 -0.00839745998 0
0.106666669 -0.00839745998 0
0.103333332 -0.00839745998 0
0.100000001 -0.00839745998 0
0.0966666639 -0.00839745998 0
0.0933333337 -0.00839745998 0
0.0900000036 -0.00839745998 0
0.086666666 -0.00839745998 0
0.0833333358 -0.00839745998 0
0.0799999982 -0.00839745998 0
0.0766666681 -0.00839745998 0
0.0733333305 -0.00839745998 0
0.0700000003 -0.00839745998 0
0.0666666701 -0.00839745998 0
0.0633333325 -0.00839745998 0
0.0599999987 -0.00839745998 0
0.0566666685 -0.00839745998 0
0.0533333346 -0.00839745998 0
0.0500000007 -0.00839745998 0
0.148333326 -0.0112842107 0
0.144999996 -0.0112842107 0
0.141666666 -0.0112842107 0
0.138333336 -0.0112842107 0
0.135000005 -0.0112842107 0
0.13166666 -0.0112842107 0
0.12833333 -0.0112842107 0
0.125 -0.0112842107 0
0.12166667 -0.0112842107 0
0.118333332 -0.0112842107 0
0.115000002 -0.0112842107 0
0.111666664 -0.0112842107 0
0.108333334 -0.0112842107 0
0.104999997 -0.0112842107 0
0.101666667 -0.0112842107 0
0.0983333364 -0.0112842107 0
0.0949999988 -0.0112842107 0
0.0916666687 -0.0112842107 0
0.088333331 -0.0112842107 0
0.0850000009 -0.0112842107 0
0.0816666633 -0.0112842107 0
0.0783333331 -0.0112842107 0
0.075000003 -0.0112842107 0
0.0716666654 -0.0112842107 0
0.0683333352 -0.0112842107 0
0.0649999976 -0.0112842107 0
0.0616666675 -0.0112842107 0
0.0583333336 -0.0112842107 0
0.0549999997 -0.0112842107 0
0.0516666658 -0.0112842107 0
0.0483333319 -0.0112842107 0
0.146666661 -0.0141709624 0
0.143333331 -0.0141709624 0
0.140000001 -0.0141709624 0
0.13666667 -0.0141709624 0
0.13333334 -0.0141709624 0
0.129999995 -0.0141709624 0
0.126666665 -0.0141709624 0
0.123333335 -0.0141709624 0
0.119999997 -0.0141709624 0
0.116666667 -0.0141709624 0
0.113333337 -0.0141709624 0
0.109999999 -0.0141709624 0
0.106666669 -0.0141709624 0
0.103333332 -0.0141709624 0
0.100000001 -0.0141709624 0
0.0966666639 -0.0141709624 0
0.0933333337 -0.0141709624 0
0.0900000036 -0.0141709624 0
0.086666666 -0.0141709624 0
0.0833333358 -0.0141709624 0
0.0799999982 -0.0141709624 0
0.0766666681 -0.0141709624 0
0.0733333305 -0.0141709624 0
0.0700000003 -0.0141709624 0
0.0666666701 -0.0141709624 0
0.0633333325 -0.0141709624 0
0.0599999987 -0.0141709624 0
0.0566666685 -0.0141709624 0
0.0533333346 -0.0141709624 0
0.0500000007 -0.0141709624 0
0.0466666669 -0.0141709624 0
0.144999996 -0.0170577131 0
0.141666666 -0.0170577131 0
0.138333336 -0.0170577131 0
0.135000005 -0.0170577131 0
0.13166666 -0.0170577131 0
0.12833333 -0.0170577131 0
0.125 -0.0170577131 0
0.12166667 -0.0170577131 0
0.118333332 -0.0170577131 0
0.115000002 -0.0170577131 0
0.111666664 -0.0170577131 0
0.108333334 -0.0170577131 0
0.104999997 -0.0170577131 0
0.101666667 -0.0170577131 0
0.0983333364 -0.0170577131 0
0.0949999988 -0.0170577131 0
0.0916666687 -0.0170577131 0
0.088333331 -0.0170577131 0
0.0850000009 -0.0170577131 0
0.0816666633 -0.0170577131 0
0.0783333331 -0.0170577131 0
0.075000003 -0.0170577131 0
0.0716666654 -0.0170577131 0
0.0683333352 -0.0170577131 0
0.0649999976 -0.0170577131 0
0.0616666675 -0.0170577131 0
0.0583333336 -0.0170577131 0
0.0549999997 -0.0170577131 0
0.0516666658 -0.0170577131 0
0.0483333319 -0.0170577131 0
0.0450000018 -0.0170577131 0
0.143333331 -0.0199444648 0
0.140000001 -0.0199444648 0
0.13666667 -0.0199444648 0
0.13333334 -0.0199444648 0
0.129999995 -0.0199444648 0
0.126666665 -0.0199444648 0
0.123333335 -0.0199444648 0
0.119999997 -0.0199444648 0
0.116666667 -0.0199444648 0
0.113333337 -0.0199444648 0
0.109999999 -0.0199444648 0
0.106666669 -0.0199444648 0
0.103333332 -0.0199444648 0
0.100000001 -0.0199444648 0
0.0966666639 -0.0199444648 0
0.0933333337 -0.0199444648 0
0.0900000036 -0.0199444648 0
0.086666666 -0.0199444648 0
0.0833333358 -0.0199444648 0
0.0799999982 -0.0199444648 0
0.0766666681 -0.0199444648 0
0.0733333305 -0.0199444648 0
0.0700000003 -0.0199444648 0
0.0666666701 -0.0199444648 0
0.0633333325 -0.0199444648 0
0.0599999987 -0.0199444648 0
0.0566666685 -0.0199444648 0
0.0533333346 -0.0199444648 0
0.0500000007 -0.0199444648 0
0.0466666669 -0.0199444648 0
0.043333333 -0.0199444648 0
0.141666666 -0.0228312165 0
0.138333336 -0.0228312165 0
0.135000005 -0.0228312165 0
0.13166666 -0.0228312165 0
0.12833333 -0.0228312165 0
0.125 -0.0228312165 0
0.12166667 -0.0228312165 0
0.118333332 -0.0228312165 0
0.115000002 -0.0228312165 0
0.111666664 -0.0228312165 0
0.108333334 -0.0228312165 0
0.104999997 -0.0228312165 0
0.101666667 -0.0228312165 0
0.0983333364 -0.0228312165 0
0.0949999988 -0.0228312165 0
0.0916666687 -0.0228312165 0
0.088333331 -0.0228312165 0
0.0850000009 -0.0228312165 0
0.0816666633 -0.0228312165 0
0.0783333331 -0.0228312165 0
0.075000003 -0.0228312165 0
0.0716666654 -0.0228312165 0
0.0683333352 -0.0228312165 0
0.0649999976 -0.0228312165 0
0.0616666675 -0.0228312165 0
0.0583333336 -0.0228312165 0
0.0549999997 -0.0228312165 0
0.0516666658 -0.0228312165 0
0.0483333319 -0.0228312165 0
0.0450000018 -0.0228312165 0
0.0416666679 -0.0228312165 0
0.140000001 -0.0257179681 0
0.13666667 -0.0257179681 0
0.13333334 -0.0257179681 0
0.129999995 -0.0257179681 0
0.126666665 -0.0257179681 0
0.123333335 -0.0257179681 0
0.119999997 -0.0257179681 0
0.116666667 -0.0257179681 0
0.113333337 -0.0257179681 0
0.109999999 -0.0257179681 0
0.106666669 -0.0257179681 0
0.103333332 -0.0257179681 0
0.100000001 -0.0257179681 0
0.0966666639 -0.0257179681 0
0.0933333337 -0.0257179681 0
0.0900000036 -0.0257179681 0
0.086666666 -0.0257179681 0
0.0833333358 -0.0257179681 0
0.0799999982 -0.0257179681 0
0.0766666681 -0.0257179681 0
0.0733333305 -0.0257179681 0
0.0700000003 -0.0257179681 0
0.0666666701 -0.0257179681 0
0.0633333325 -0.0257179681 0
0.0599999987 -0.0257179681 0
0.0566666685 -0.0257179681 0
0.0533333346 -0.0257179681 0
0.0500000007 -0.0257179681 0
0.0466666669 -0.0257179681 0
0.043333333 -0.0257179681 0
0.0399999991 -0.0257179681 0
0.138333336 -0.0286047198 0
0.135000005 -0.0286047198 0
0.13166666 -0.0286047198 0
0.12833333 -0.0286047198 0
0.125 -0.0286047198 0
0.12166667 -0.0286047198 0
0.118333332 -0.0286047198 0
0.115000002 -0.0286047198 0
0.111666664 -0.0286047198 0
0.108333334 -0.0286047198 0
0.104999997 -0.0286047198 0
0.101666667 -0.0286047198 0
0.0983333364 -0.0286047198 0
0.0949999988 -0.0286047198 0
0.0916666687 -0.0286047198 0
0.088333331 -0.0286047198 0
0.0850000009 -0.0286047198 0
0.0816666633 -0.0286047198 0
0.0783333331 -0.0286047198 0
0.075000003 -0.0286047198 0
0.0716666654 -0.0286047198 0
0.0683333352 -0.0286047198 0
0.0649999976 -0.0286047198 0
0.0616666675 -0.0286047198 0
0.0583333336 -0.0286047198 0
0.0549999997 -0.0286047198 0
0.0516666658 -0.0286047198 0
0.0483333319 -0.0286047198 0
0.0450000018 -0.0286047198 0
0.0416666679 -0.0286047198 0
0.038333334 -0.0286047198 0
0.13666667 -0.0314914696 0
0.13333334 -0.0314914696 0
0.129999995 -0.0314914696 0
0.126666665 -0.0314914696 0
0.123333335 -0.0314914696 0
0.119999997 -0.0314914696 0
0.116666667 -0.0314914696 0
0.113333337 -0.0314914696 0
0.109999999 -0.0314914696 0
0.106666669 -0.0314914696 0
0.103333332 -0.0314914696 0
0.100000001 -0.0314914696 0
0.0966666639 -0.0314914696 0
0.0933333337 -0.0314914696 0
0.0900000036 -0.0314914696 0
0.086666666 -0.0314914696 0
0.0833333358 -0.0314914696 0
0.0799999982 -0.0314914696 0
0.0766666681 -0.0314914696 0
0.0733333305 -0.0314914696 0
0.0700000003 -0.0314914696 0
0.0666666701 -0.0314914696 0
0.0633333325 -0.0314914696 0
0.0599999987 -0.0314914696 0
0.0566666685 -0.0314914696 0
0.0533333346 -0.0314914696 0
0.0500000007 -0.0314914696 0
0.0466666669 -0.0314914696 0
0.043333333 -0.0314914696 0
0.0399999991 -0.0314914696 0
0.0366666652 -0.0314914696 0
0.135000005 -0.0343782231 0
0.13166666 -0.0343782231 0
0.12833333 -0.0343782231 0
0.125 -0.0343782231 0
0.12166667 -0.0343782231 0
0.118333332 -0.0343782231 0
0.115000002 -0.0343782231 0
0.111666664 -0.0343782231 0
0.108333334 -0.0343782231 0
0.104999997 -0.0343782231 0
0.101666667 -0.0343782231 0
0.0983333364 -0.0343782231 0
0.0949999988 -0.0343782231 0
0.0916666687 -0.0343782231 0
0.088333331 -0.0343782231 0
0.0850000009 -0.0343782231 0
0.0816666633 -0.0343782231 0
0.0783333331 -0.0343782231 0
0.075000003 -0.0343782231 0
0.0716666654 -0.0343782231 0
0.0683333352 -0.0343782231 0
0.0649999976 -0.0343782231 0
0.0616666675 -0.0343782231 0
0.0583333336 -0.0343782231 0
0.0549999997 -0.0343782231 0
0.0516666658 -0.0343782231 0
0.0483333319 -0.0343782231 0
0.0450000018 -0.0343782231 0
0.0416666679 -0.0343782231 0
0.038333334 -0.0343782231 0
0.0350000001 -0.0343782231 0
0.13333334 -0.0372649729 0
0.129999995 -0.0372649729 0
0.126666665 -0.0372649729 0
0.123333335 -0.0372649729 0
0.119999997 -0.0372649729 0
0.116666667 -0.0372649729 0
0.113333337 -0.0372649729 0
0.109999999 -0.0372649729 0
0.106666669 -0.0372649729 0
0.103333332 -0.0372649729 0
0.100000001 -0.0372649729 0
0.0966666639 -0.0372649729 0
0.0933333337 -0.0372649729 0
0.0900000036 -0.0372649729 0
0.086666666 -0.0372649729 0
0.0833333358 -0.0372649729 0
0.0799999982 -0.0372649729 0
0.0766666681 -0.0372649729 0
0.0733333305 -0.0372649729 0
0.0700000003 -0.0372649729 0
0.0666666701 -0.0372649729 0
0.0633333325 -0.0372649729 0
0.0599999987 -0.0372649729 0
0.0566666685 -0.0372649729 0
0.0533333346 -0.0372649729 0
0.0500000007 -0.0372649729 0
0.0466666669 -0.0372649729 0
0.043333333 -0.0372649729 0
0.0399999991 -0.0372649729 0
0.0366666652 -0.0372649729 0
0.0333333351 -0.0372649729 0
0.13166666 -0.0401517227 0
0.12833333 -0.0401517227 0
0.125 -0.0401517227 0
0.12166667 -0.0401517227 0
0.118333332 -0.0401517227 0
0.115000002 -0.0401517227 0
0.111666664 -0.0401517227 0
[...]
POINT_DATA 961
SCALARS Temp float 1
LOOKUP_TABLE default
578.7566070618631
538.0009090483416
500.31159422555453
466.25568061682003
435.9796832364132
409.4880096586591
386.67155278234304
367.33010215950344
351.19383863899526
337.94628969307365
327.2461320318948
318.74682379744826
312.1136331057436
307.0372401332766
303.24378426203754
300.50201720720133
298.62773065798865
297.4863713807179
296.9943045483729
297.1193082453127
297.88053209578413
299.3479613884087
301.64115257481035
304.9269055084009
309.4152718899276
315.35368475372354
323.01890944152
332.7073254436343
344.72564000237946
359.38863642400776
377.158250447199
538.0009203492943
497.1608987021151
460.0149858307475
426.72084341406116
397.3452659347206
371.8311672891292
350.0178351659063
331.66157626482095
316.4589020379784
304.0692123960128
294.13639955329757
286.3076363249491
280.24933661383017
275.6592666098267
272.27554044886205
269.88250134548537
268.31438934867975
267.4573297327635
267.2502229024345
267.6850045903566
268.8063798694199
270.7109455016982
273.54541575560575
277.50343363268007
282.8204837784898
289.766693003836
298.6372718174389
309.7416215806576
323.39236895946544
339.9011879890322
359.38865571700757
500.31154837654793
460.01496169265397
423.60922729664634
391.205757623178
362.8025546193542
338.2881966877947
317.45781302783143
300.0334026044001
285.6869579356528
274.0628541669242
264.79824101660535
257.5409321149811
251.96385424685153
247.77586433886955
244.72959446056532
242.62642655243602
241.31955012620088
240.71553225699927
240.77502708516397
241.51286179315136
242.99755507722315
245.35004376708426
248.74125859362795
253.3879291073587
259.5463065740024
267.5033360775233
277.5652775203871
290.0439851922507
305.2393512346348
323.39236043963524
344.72565235039673
466.25561667100266
426.7208034774469
391.2057535545948
359.7718307719964
332.3658116280943
308.83260908937086
288.9325179180011
272.3629450369325
258.7805135954077
247.82264769682453
239.1266869179996
232.34647942454657
227.16525550397512
223.30548318580688
220.53557059708464
218.67428633896463
217.59337099765736
217.21890267413207
217.53190341697945
218.5682927393821
220.41813799210615
223.22392240131612
227.17731259659467
232.51388532613367
239.50546213602468
248.44947291868667
259.65552940090635
273.42825152429344
290.0440030477508
309.7416346145313
332.70731715608275
435.97961337249484
397.3452210805462
362.8025252760724
332.3659137979112
305.9401516378023
283.33629094332474
264.2900217920204
248.48326935694004
235.56561730907174
225.17429684166538
216.95222851587312
210.5630396144863
205.70271805680042
202.10847710359192
199.56474297442983
197.90716345339655
197.02496413669002
196.8622752986524
197.41866131303885
198.74893565361592
200.96208799141846
204.2189800405447
208.72820273667537
214.7397167758768
222.53567181040532
232.4181453484183
244.6938058771267
259.65552144472866
277.5652716176006
298.6372716069601
323.01891394679126
409.48793003293133
371.83122196845073
338.2882678065666
308.83256942359424
283.33627394143406
261.58586389251144
243.3018226249
228.1588715232437
215.8063206778354
205.88660817423545
198.05203116423368
191.97824646029065
187.37516316187424
183.99483711493804
181.6371244430138
180.15341315271252
179.4489131282977
179.48398853486347
180.27462888970658
181.89208149734313
184.4614059923774
188.15849574644554
193.2050362251117
199.86101355998935
208.41415359297025
219.16651770766427
232.41814004014762
248.44947466902534
267.50334203479633
289.76666987671393
315.35368391321515
386.67157157765087
350.0178697726989
317.45787500244376
288.9324683469817
264.28999685190615
243.30181341781406
225.68121100527475
211.10266703031854
199.22039423532976
189.685828981971
182.16286631519546
176.34031745463682
171.94202631695669
168.73425646780126
166.53112239740528
165.19819986023808
164.65489630788647
164.8757824414663
165.89100057818598
167.78566880100138
170.6979944886458
174.81558512604067
180.36959543233974
187.62614116400735
196.87476104423885
208.41414755117162
222.53565977983814
239.50544520757714
259.54630923043686
282.8204834841275
309.41527928146394
367.33012061494003
331.66160811767435
300.0333277558985
272.3628936380735
248.4832768215768
228.15889503461275
211.10265943861123
196.99394325327674
185.49564561458817
176.27048802761735
168.99487802672215
163.37087134059058
159.13549787973676
156.06803348971522
153.9952966780844
152.7953031728706
152.39972976302153
152.7952473508869
154.0238439551159
156.18196355327262
159.41813343874435
163.9286309535964
169.95085298275208
177.7538340060804
187.62613646812937
199.8610060158212
214.73972200914247
232.51388778430905
253.3879131952752
277.5034134457603
304.92689334194506
351.1938473048812
316.45893800508685
285.6869191764813
258.7804988378437
235.56562495543963
215.8062990744958
199.2203849786555
185.49567053445944
174.30601982829674
165.32633441416445
158.24560205227462
152.77831500081885
148.67348803127825
145.7218761229128
143.7612518341542
142.68023876815846
142.4208312753289
142.97973540192285
144.40856423905544
146.81268276912226
150.34834746469815
155.2178446102829
161.66214544561743
169.95085778101165
180.3696004116666
193.20503811376386
208.72820180716514
227.17730773443975
248.7412609822657
273.5454258053653
301.641172085943
337.9463402084124
304.06914878235534
274.0628255080356
247.8226379421209
225.1743068664699
205.88660791863245
189.68584116083483
176.27047842086247
165.32632706251712
156.54030407957495
149.61328316013902
144.2708841275877
140.2725795504098
137.41888958670748
135.55678756908986
134.5836959024549
134.45004972598304
135.1606474719226
136.77467878954585
139.40426700257237
143.21119402757915
148.40155218127555
155.21784068122176
163.9286311675987
174.81558359862927
188.15849268746607
204.21897584850907
223.22390221628203
245.3500284324062
270.71092836183715
299.34795352367485
327.2462086157413
294.1363476310307
264.7982193447781
239.12670079187757
216.9522118450668
198.05203176334618
182.16287922838322
168.9948817742872
158.24560991543305
149.61328182016422
142.8092912071129
137.56886703475763
133.6602688169428
130.89203343401553
129.11864070068748
128.2446021721633
128.22708980917443
129.0772442553052
130.86003378371527
133.69249570919388
137.74014804018591
143.21120245369198
150.3483488835936
159.41812983114744
170.69798869848393
184.46140628848676
200.9620858574176
220.41813563953565
242.99756061576917
268.80638709463403
297.88052042794885
318.7467647951236
286.307608933812
257.5409327838361
232.34649612796713
210.56302330050406
191.97825958655784
176.3403087578885
163.37087471048432
152.7783031209047
144.27088287583396
137.568876866971
132.41545536259872
128.58595252327765
125.89530408139352
124.20392878913239
123.42188357336387
123.51158282346654
124.48900574154437
126.42339843116824
129.43526639169957
133.69250314191262
139.40427177024117
146.81268051605255
156.1819741972578
167.78567980326372
181.8920942848765
198.74892892273678
218.56828494694057
241.5128648367516
267.6850078705305
297.11932189015346
312.11359948621094
280.2493244953015
251.963867702371
227.16523696286933
205.70272083744257
187.37518336614156
171.94202232322237
159.13550525095016
148.67348440130382
140.27258537209397
133.6602636251052
128.5859489035872
124.83040215926411
122.21348371364304
120.60014753740292
119.9047009466969
120.09354010511319
121.18627346331726
123.25525292307661
126.42339012856769
130.8600314540414
136.77468569348403
144.40855635612212
154.0238414587203
165.89099696788313
180.27462444030385
197.41865949522165
217.53190184557417
240.77503480195907
267.25020039970985
296.99430872439945
307.03720868020525
275.6592653615585
247.7758903855841
223.30546634969025
202.10848311364822
183.99481954731812
168.7342603543192
156.068025268754
145.7218732451636
137.41889725765
130.89202775313592
125.89530580683272
122.2134828122769
119.67004954569956
118.13330094596087
117.5207492109093
117.80178514400441
118.99874147257584
121.18627204004692
124.48900834804282
129.07724451332385
135.16065195826715
142.97973486203955
152.79525402464841
164.87579235086648
179.48398310982319
196.86226938398795
217.21889656071946
240.71553412014902
267.4573331453221
297.48636990745234
303.243778323951
272.27555629130154
244.72957460866002
220.53556816544904
199.5647669330016
181.63712183333237
166.53113535818636
153.99529426385226
143.76125074607197
135.55678607494258
129.11864133289578
124.20393135079263
120.60014625371585
118.13330293293151
116.67413764430545
116.14256387731224
116.51029030357576
117.80178397276565
120.09353761345736
123.51158042036052
128.2270902449181
134.45004726558417
142.42082340659798
152.399727948613
164.65489386855916
179.44891191878662
197.0249627715332
217.59337079411418
241.31953182862551
268.31438651023944
298.62772355206727
300.5020152021603
269.8825215605795
242.626413973005
218.67429230335264
197.90714470681837
180.15341359028312
165.19818649702958
152.7953055015981
142.6802438773013
134.5836953008962
128.2446038595577
123.42187829610627
119.90470208669133
117.52074701018165
116.14256399930339
115.69195250679502
116.14256472483467
117.5207479941476
119.90470439056146
123.4218808285112
128.24460122644683
134.5837003011106
142.68023945695617
152.79531167838826
165.19819360107584
180.15340761229209
197.90715893153865
218.6742818358417
242.62643219303135
269.8824890166915
300.50201773630687
298.6277530410722
268.314365836394
241.31955767572018
217.5933952039035
197.02495936711682
179.448928689324
164.6548950482091
152.39973802007114
142.4208236521093
134.4500549410245
128.22709702396054
123.51158090570362
120.09354461915123
117.80178496066452
116.51029110764904
116.14256528568258
116.67413883722178
118.13330003079787
120.60014784816441
124.20392795639708
129.11863708438744
135.55678762141537
143.76124406983078
153.99529479134708
166.53112238499753
181.63712602698175
199.56474646916354
220.53554583884724
244.72959220304668
272.2755241872523
303.2437795909102
297.48640255309954
267.45731287214727
240.7155453703297
217.2188796053991
196.86227565916312
179.48397421877402
164.8757846577229
152.7952590424039
142.97972860368435
135.1606551336888
129.07724118678115
124.48900532276497
121.18627050427702
118.99874023043667
117.80178631118395
117.52074946728038
118.13330141605047
119.67005117883953
122.21348460992057
125.89530366284009
130.89203161020737
137.4188934173779
145.72187807565666
156.06803076878228
168.73425470147694
183.99483101268302
202.10847265164887
223.30548039059624
247.77585659266708
275.6592613674474
307.03723940195425
296.99427274288394
267.25021322268304
240.7750467316804
217.53188414514645
197.41866668367385
180.2746155033798
165.89100019238265
154.02383444305622
144.40855966374923
136.77468904602395
130.86002790818418
126.42339597031608
123.25525133178787
121.18627222279586
120.09353994791432
119.90470099168775
120.6001457513071
122.21348514830602
124.83040036115467
128.58594703238344
133.66026695338618
140.27258291124954
148.6734887870441
159.1354993811393
171.9420322098949
187.37517305601241
205.70270986879592
227.16526198254644
251.9638483098429
280.24933421831827
312.1136429431447
297.119302204481
267.6850196368367
241.51284472719007
218.5682912403786
198.74891810177667
181.89208501224468
167.785685459924
156.18196667885923
146.81268430942512
139.40426766069191
133.69249940681067
129.4352643090387
126.42339666250385
124.48900805848409
123.51158268460317
123.42188359573197
124.20392983789576
125.89530524108537
128.58595082251256
132.4154582449139
137.56887358379325
144.27088658088945
152.77830726038067
163.370869461483
176.34031784932364
191.97824948461962
210.56303435948885
232.3464638705176
257.5409267084711
286.30763370453184
318.74681686655447
297.8805313224385
268.8063981598113
242.99753953832632
220.4181429344306
200.96207525957658
184.4614098470929
170.69798040519302
159.41813375264914
150.34835291425887
143.21119817981997
137.74015541640497
133.69249368701844
130.86003213239007
129.0772436939463
128.22708938207495
128.24460148747053
129.11864163578988
130.8920320437934
133.66026736468953
137.56886948080452
142.80928902429332
149.61328511348796
158.24560462798996
168.99488964717622
182.1628696327039
198.05202150469182
216.95223324099948
239.12668298232052
264.79822939045084
294.13639190230424
327.24612327023476
299.34796224354216
270.71090373493587
245.3500344508268
223.22388964591252
204.21896521842504
188.15849911975096
174.81557501065913
163.9286356978961
155.21783591334784
148.4015478456666
143.21119147036939
139.4042647565474
136.77468221741603
135.1606470393312
134.45004939450422
134.58369647878294
135.5567882111586
137.41888828836701
140.27258164705214
144.27088136409967
149.61328597064212
156.54030711877803
165.326322287682
176.27048563917984
189.68583185591982
205.8866171998469
225.17427808297245
247.82263416513138
274.0628541674054
304.0692186939494
337.946300628603
301.6412020532848
273.54542296331766
248.74128875154187
227.17731468617015
208.72822352681408
193.20504536151404
180.36962068329348
169.95087738416663
161.66215468156636
155.21786702251265
150.34835814386847
146.81269339235612
144.40857557303838
142.9797464539846
142.42084309066
142.68025052371866
143.76126159697827
145.7218853884753
148.6734995781722
152.77832221665457
158.24561283140991
165.32633715091166
174.3060324547925
185.49566697156382
199.22037961557447
215.80632028801645
235.56561064190086
258.78051029656683
285.6869655556014
316.4588655937414
351.1938169179177
304.92689035728245
277.5034432272384
253.38792112996174
232.51389662668396
214.7397486873587
199.86101512575306
187.6261594613622
177.7538457372689
169.9508645953583
163.9286439149875
159.4181462694476
156.1819830960286
154.0238581259926
152.79526126167633
152.39974417477796
152.7953172860835
153.99530922545088
156.0680480324085
159.1355080939061
163.37088534401988
168.99489131251028
176.2704939193556
185.4956604805646
196.99394269260424
211.1026737869459
228.1588743599603
248.4832776840186
272.36292381030233
300.0333950584575
331.6615682223906
367.3301070363313
309.4152696039892
282.8205044981746
259.5463082057151
239.5054610035023
222.53566038783745
208.4141631662137
196.87477646087294
187.62614543120563
180.36961496837813
174.8155916849157
170.69800121843983
167.78567643056556
165.89100805846584
164.87579198336059
164.65490497896053
165.19820734071448
166.53112969919536
168.73426555065748
171.942032203528
176.34032644980567
182.16286896146775
189.68584021434475
199.22039189834268
211.10266354093886
225.6812311683328
243.30180227287693
264.29000927713616
288.93251240180024
317.45780636940714
350.01783759567826
386.6715752237757
315.35369284357483
289.76665624001316
267.5033305242211
248.44948331735455
232.4181307477015
219.16652413497295
208.4141483522803
199.86100873064862
193.2050331750139
188.1584929076788
184.46141127220702
181.8920808082726
180.27462816888567
179.48398851005274
179.44891309609602
180.15341249072526
181.6371254766251
183.99483514833273
187.37516469763105
191.97824781496095
198.05202694277872
205.88661216782845
215.80631194137402
228.15887639752407
243.30179673548605
261.5858574943241
283.33629376037015
308.83262161187804
338.28821643557757
371.8311870313967
409.4879293245605
323.018908945964
298.6372454261546
277.5652641140875
259.65549847207905
244.69379924843545
232.41813879800637
222.5356535712374
214.739715228379
208.72818743105267
204.21896509526036
200.9620740845613
198.74892172175075
197.41865040345655
196.86226300953828
197.02495128525965
197.9071507316022
199.56473176115566
202.10846363032698
205.70270747361164
210.56302412566137
216.9522207180997
225.1742776738682
235.56559754209107
248.48327065995628
264.2899948077808
283.3362845369487
305.9401723045274
332.3658260789379
362.80246468829074
397.3451833870372
435.97960197176286
332.7073333207264
309.7416532354849
290.0440427054782
273.4282722513159
259.65556592597716
248.4494968735718
239.505486264561
232.51391096714607
227.17733828160004
223.2239567169334
220.41816572199212
218.56832027758531
217.53193143784026
217.21893053964388
217.59339845640758
218.67431477625829
220.5355963417419
223.30551144007293
227.1652830057547
232.3465015190381
239.1267152482145
247.82266368421568
258.78054010815436
272.3629418758934
288.9325296396437
308.8326409794142
332.36586798590736
359.7717830351284
391.2057099599873
426.7207761000725
466.25562293662114
344.7256647828247
323.39239354333694
305.2393677653538
290.04401751631036
277.56530935419505
267.50335560196015
259.54634291942426
253.38795123884682
248.74128095634947
245.35006697875494
242.99757807730555
241.51288806739277
240.7750514663682
240.71555614873742
241.31957395117266
242.62645121755486
244.72961684532748
247.77588867295995
251.96387372272065
257.5409574518567
264.79825519606555
274.062866480779
285.6869873694941
300.03340389922255
317.457829838974
338.2882338615738
362.802484844666
391.20570413313305
423.60918254259735
460.0149282754717
500.3115450452144
359.38865907669117
339.9012099814898
323.39237068431345
309.74163844618073
298.6372760164097
289.76669733472045
282.8204895693512
277.5034395591334
273.54543059136705
270.710953722087
268.806387858548
267.6850131150367
267.25023140590145
267.45733822075556
268.314398681756
269.8825085507489
272.27555000638336
275.6592756192787
280.2493411073154
286.30764657870486
294.1363988227897
304.06922124256135
316.4588837385681
331.6615710648788
350.0178471811975
371.8311998125959
397.3451981557006
426.72077314710634
460.0149192334181
497.1608412445124
538.0008343913648
377.1582656935489
359.3886303669998
344.72564837647315
332.7073330409984
323.0189044825418
315.35369625297517
309.4152692672752
304.9269037607184
301.64115154839635
299.34795955663816
297.8805338401868
297.11930796802477
296.99430423579906
297.4863709757178
298.62773102935813
300.5020158000228
303.24378435183417
307.0372364132425
312.1136347120298
318.74681539952195
327.24612210028704
337.94629579859003
351.19381929696993
367.33009643624246
386.6715645055085
409.48792136465005
435.97960887563454
466.2556090460252
500.3115214077388
538.0008188073949
578.7562530516693
