# vtk DataFile Version 2.0
Unstructured Grid Example
ASCII
DATASET UNSTRUCTURED_GRID

POINTS 961 float
0.150000006 -0.00839745998 0
0.146666661 -0.00839745998 0
0.143333331 -0.00839745998 0
0.140000001 -0.00839745998 0
0.13666667 -0.00839745998 0
0.13333334 -0.00839745998 0
0.129999995 -0.00839745998 0
0.126666665 -0.00839745998 0
0.123333335 -0.00839745998 0
0.119999997 -0.00839745998 0
0.116666667 -0.00839745998 0
0.113333337 -0.00839745998 0
0.109999999 -0.00839745998 0
0.106666669 -0.00839745998 0
0.103333332 -0.00839745998 0
0.100000001 -0.00839745998 0
0.0966666639 -0.00839745998 0
0.0933333337 -0.00839745998 0
0.0900000036 -0.00839745998 0
0.086666666 -0.00839745998 0
0.0833333358 -0.00839745998 0
0.0799999982 -0.00839745998 0
0.0766666681 -0.00839745998 0
0.0733333305 -0.00839745998 0
0.0700000003 -0.00839745998 0
0.0666666701 -0.00839745998 0
0.0633333325 -0.00839745998 0
0.0599999987 -0.00839745998 0
0.0566666685 -0.00839745998 0
0.0533333346 -0.00839745998 0
0.0500000007 -0.00839745998 0
0.148333326 -0.0112842107 0
0.144999996 -0.0112842107 0
0.141666666 -0.0112842107 0
0.138333336 -0.0112842107 0
0.135000005 -0.0112842107 0
0.13166666 -0.0112842107 0
0.12833333 -0.0112842107 0
0.125 -0.0112842107 0
0.12166667 -0.0112842107 0
0.118333332 -0.0112842107 0
0.115000002 -0.0112842107 0
0.111666664 -0.0112842107 0
0.108333334 -0.0112842107 0
0.104999997 -0.0112842107 0
0.101666667 -0.0112842107 0
0.0983333364 -0.0112842107 0
0.0949999988 -0.0112842107 0
0.0916666687 -0.0112842107 0
0.088333331 -0.0112842107 0
0.0850000009 -0.0112842107 0
0.0816666633 -0.0112842107 0
0.0783333331 -0.0112842107 0
0.075000003 -0.0112842107 0
0.0716666654 -0.0112842107 0
0.0683333352 -0.0112842107 0
0.0649999976 -0.0112842107 0
0.0616666675 -0.0112842107 0
0.0583333336 -0.0112842107 0
0.0549999997 -0.0112842107 0
0.0516666658 -0.0112842107 0
0.0483333319 -0.0112842107 0
0.146666661 -0.0141709624 0
0.143333331 -0.0141709624 0
0.140000001 -0.0141709624 0
0.13666667 -0.0141709624 0
0.13333334 -0.0141709624 0
0.129999995 -0.0141709624 0
0.126666665 -0.0141709624 0
0.123333335 -0.0141709624 0
0.119999997 -0.0141709624 0
0.116666667 -0.0141709624 0
0.113333337 -0.0141709624 0
0.109999999 -0.0141709624 0
0.106666669 -0.0141709624 0
0.103333332 -0.0141709624 0
0.100000001 -0.0141709624 0
0.0966666639 -0.0141709624 0
0.0933333337 -0.0141709624 0
0.0900000036 -0.0141709624 0
0.086666666 -0.0141709624 0
0.0833333358 -0.0141709624 0
0.0799999982 -0.0141709624 0
0.0766666681 -0.0141709624 0
0.0733333305 -0.0141709624 0
0.0700000003 -0.0141709624 0
0.0666666701 -0.0141709624 0
0.0633333325 -0.0141709624 0
0.0599999987 -0.0141709624 0
0.0566666685 -0.0141709624 0
0.0533333346 -0.0141709624 0
0.0500000007 -0.0141709624 0
0.0466666669 -0.0141709624 0
0.144999996 -0.0170577131 0
0.141666666 -0.0170577131 0
0.138333336 -0.0170577131 0
0.135000005 -0.0170577131 0
0.13166666 -0.0170577131 0
0.12833333 -0.0170577131 0
0.125 -0.0170577131 0
0.12166667 -0.0170577131 0
0.118333332 -0.0170577131 0
0.115000002 -0.0170577131 0
0.111666664 -0.0170577131 0
0.108333334 -0.0170577131 0
0.104999997 -0.0170577131 0
0.101666667 -0.0170577131 0
0.0983333364 -0.0170577131 0
0.0949999988 -0.0170577131 0
0.0916666687 -0.0170577131 0
0.088333331 -0.0170577131 0
0.0850000009 -0.0170577131 0
0.0816666633 -0.0170577131 0
0.0783333331 -0.0170577131 0
0.075000003 -0.0170577131 0
0.0716666654 -0.0170577131 0
0.0683333352 -0.0170577131 0
0.0649999976 -0.0170577131 0
0.0616666675 -0.0170577131 0
0.0583333336 -0.0170577131 0
0.0549999997 -0.0170577131 0
0.0516666658 -0.0170577131 0
0.0483333319 -0.0170577131 0
0.0450000018 -0.0170577131 0
0.143333331 -0.0199444648 0
0.140000001 -0.0199444648 0
0.13666667 -0.0199444648 0
0.13333334 -0.0199444648 0
0.129999995 -0.0199444648 0
0.126666665 -0.0199444648 0
0.123333335 -0.0199444648 0
0.119999997 -0.0199444648 0
0.116666667 -0.0199444648 0
0.113333337 -0.0199444648 0
0.109999999 -0.0199444648 0
0.106666669 -0.0199444648 0
0.103333332 -0.0199444648 0
0.100000001 -0.0199444648 0
0.0966666639 -0.0199444648 0
0.0933333337 -0.0199444648 0
0.0900000036 -0.0199444648 0
0.086666666 -0.0199444648 0
0.0833333358 -0.0199444648 0
0.0799999982 -0.0199444648 0
0.0766666681 -0.0199444648 0
0.0733333305 -0.0199444648 0
0.0700000003 -0.0199444648 0
0.0666666701 -0.0199444648 0
0.0633333325 -0.0199444648 0
0.0599999987 -0.0199444648 0
0.0566666685 -0.0199444648 0
0.0533333346 -0.0199444648 0
0.0500000007 -0.0199444648 0
0.0466666669 -0.0199444648 0
0.043333333 -0.0199444648 0
0.141666666 -0.0228312165 0
0.138333336 -0.0228312165 0
0.135000005 -0.0228312165 0
0.13166666 -0.0228312165 0
0.12833333 -0.0228312165 0
0.125 -0.0228312165 0
0.12166667 -0.0228312165 0
0.118333332 -0.0228312165 0
0.115000002 -0.0228312165 0
0.111666664 -0.0228312165 0
0.108333334 -0.0228312165 0
0.104999997 -0.0228312165 0
0.101666667 -0.0228312165 0
0.0983333364 -0.0228312165 0
0.0949999988 -0.0228312165 0
0.0916666687 -0.0228312165 0
0.088333331 -0.0228312165 0
0.0850000009 -0.0228312165 0
0.0816666633 -0.0228312165 0
0.0783333331 -0.0228312165 0
0.075000003 -0.0228312165 0
0.0716666654 -0.0228312165 0
0.0683333352 -0.0228312165 0
0.0649999976 -0.0228312165 0
0.0616666675 -0.0228312165 0
0.0583333336 -0.0228312165 0
0.0549999997 -0.0228312165 0
0.0516666658 -0.0228312165 0
0.0483333319 -0.0228312165 0
0.0450000018 -0.0228312165 0
0.0416666679 -0.0228312165 0
0.140000001 -0.0257179681 0
0.13666667 -0.0257179681 0
0.13333334 -0.0257179681 0
0.129999995 -0.0257179681 0
0.126666665 -0.0257179681 0
0.123333335 -0.0257179681 0
0.119999997 -0.0257179681 0
0.116666667 -0.0257179681 0
0.113333337 -0.0257179681 0
0.109999999 -0.0257179681 0
0.106666669 -0.0257179681 0
0.103333332 -0.0257179681 0
0.100000001 -0.0257179681 0
0.0966666639 -0.0257179681 0
0.0933333337 -0.0257179681 0
0.0900000036 -0.0257179681 0
0.086666666 -0.0257179681 0
0.0833333358 -0.0257179681 0
0.0799999982 -0.0257179681 0
0.0766666681 -0.0257179681 0
0.0733333305 -0.0257179681 0
0.0700000003 -0.0257179681 0
0.0666666701 -0.0257179681 0
0.0633333325 -0.0257179681 0
0.0599999987 -0.0257179681 0
0.0566666685 -0.0257179681 0
0.0533333346 -0.0257179681 0
0.0500000007 -0.0257179681 0
0.0466666669 -0.0257179681 0
0.043333333 -0.0257179681 0
0.0399999991 -0.0257179681 0
0.138333336 -0.0286047198 0
0.135000005 -0.0286047198 0
0.13166666 -0.0286047198 0
0.12833333 -0.0286047198 0
0.125 -0.0286047198 0
0.12166667 -0.0286047198 0
0.118333332 -0.0286047198 0
0.115000002 -0.0286047198 0
0.111666664 -0.0286047198 0
0.108333334 -0.0286047198 0
0.104999997 -0.0286047198 0
0.101666667 -0.0286047198 0
0.0983333364 -0.0286047198 0
0.0949999988 -0.0286047198 0
0.0916666687 -0.0286047198 0
0.088333331 -0.0286047198 0
0.0850000009 -0.0286047198 0
0.0816666633 -0.0286047198 0
0.0783333331 -0.0286047198 0
0.075000003 -0.0286047198 0
0.0716666654 -0.0286047198 0
0.0683333352 -0.0286047198 0
0.0649999976 -0.0286047198 0
0.0616666675 -0.0286047198 0
0.0583333336 -0.0286047198 0
0.0549999997 -0.0286047198 0
0.0516666658 -0.0286047198 0
0.0483333319 -0.0286047198 0
0.0450000018 -0.0286047198 0
0.0416666679 -0.0286047198 0
0.038333334 -0.0286047198 0
0.13666667 -0.0314914696 0
0.13333334 -0.0314914696 0
0.129999995 -0.0314914696 0
0.126666665 -0.0314914696 0
0.123333335 -0.0314914696 0
0.119999997 -0.0314914696 0
0.116666667 -0.0314914696 0
0.113333337 -0.0314914696 0
0.109999999 -0.0314914696 0
0.106666669 -0.0314914696 0
0.103333332 -0.0314914696 0
0.100000001 -0.0314914696 0
0.0966666639 -0.0314914696 0
0.0933333337 -0.0314914696 0
0.0900000036 -0.0314914696 0
0.086666666 -0.0314914696 0
0.0833333358 -0.0314914696 0
0.0799999982 -0.0314914696 0
0.0766666681 -0.0314914696 0
0.0733333305 -0.0314914696 0
0.0700000003 -0.0314914696 0
0.0666666701 -0.0314914696 0
0.0633333325 -0.0314914696 0
0.0599999987 -0.0314914696 0
0.0566666685 -0.0314914696 0
0.0533333346 -0.0314914696 0
0.0500000007 -0.0314914696 0
0.0466666669 -0.0314914696 0
0.043333333 -0.0314914696 0
0.0399999991 -0.0314914696 0
0.0366666652 -0.0314914696 0
0.135000005 -0.0343782231 0
0.13166666 -0.0343782231 0
0.12833333 -0.0343782231 0
0.125 -0.0343782231 0
0.12166667 -0.0343782231 0
0.118333332 -0.0343782231 0
0.115000002 -0.0343782231 0
0.111666664 -0.0343782231 0
0.108333334 -0.0343782231 0
0.104999997 -0.0343782231 0
0.101666667 -0.0343782231 0
0.0983333364 -0.0343782231 0
0.0949999988 -0.0343782231 0
0.0916666687 -0.0343782231 0
0.088333331 -0.0343782231 0
0.0850000009 -0.0343782231 0
0.0816666633 -0.0343782231 0
0.0783333331 -0.0343782231 0
0.075000003 -0.0343782231 0
0.0716666654 -0.0343782231 0
0.0683333352 -0.0343782231 0
0.0649999976 -0.0343782231 0
0.0616666675 -0.0343782231 0
0.0583333336 -0.0343782231 0
0.0549999997 -0.0343782231 0
0.0516666658 -0.0343782231 0
0.0483333319 -0.0343782231 0
0.0450000018 -0.0343782231 0
0.0416666679 -0.0343782231 0
0.038333334 -0.0343782231 0
0.0350000001 -0.0343782231 0
0.13333334 -0.0372649729 0
0.129999995 -0.0372649729 0
0.126666665 -0.0372649729 0
0.123333335 -0.0372649729 0
0.119999997 -0.0372649729 0
0.116666667 -0.0372649729 0
0.113333337 -0.0372649729 0
0.109999999 -0.0372649729 0
0.106666669 -0.0372649729 0
0.103333332 -0.0372649729 0
0.100000001 -0.0372649729 0
0.0966666639 -0.0372649729 0
0.0933333337 -0.0372649729 0
0.0900000036 -0.0372649729 0
0.086666666 -0.0372649729 0
0.0833333358 -0.0372649729 0
0.0799999982 -0.0372649729 0
0.0766666681 -0.0372649729 0
0.0733333305 -0.0372649729 0
0.0700000003 -0.0372649729 0
0.0666666701 -0.0372649729 0
0.0633333325 -0.0372649729 0
0.0599999987 -0.0372649729 0
0.0566666685 -0.0372649729 0
0.0533333346 -0.0372649729 0
0.0500000007 -0.0372649729 0
0.0466666669 -0.0372649729 0
0.043333333 -0.0372649729 0
0.0399999991 -0.0372649729 0
0.0366666652 -0.0372649729 0
0.0333333351 -0.0372649729 0
0.13166666 -0.0401517227 0
0.12833333 -0.0401517227 0
0.125 -0.0401517227 0
0.12166667 -0.0401517227 0
0.118333332 -0.0401517227 0
0.115000002 -0.0401517227 0
0.111666664 -0.0401517227 0
[...]
POINT_DATA 961
SCALARS Temp float 1
LOOKUP_TABLE default
380.7710207565152
331.4560142419655
291.50330324139463
261.48017835080935
240.18309982698185
225.8992031058029
216.8268334821509
211.35922071363862
208.2250046439646
206.5114824323678
205.61544211530514
205.16595941478062
204.94904065178147
204.84805521430812
204.80259731466052
204.78280426954765
204.77459279071383
204.77179628348875
204.77250975974854
204.77820747909547
204.79558854243928
204.8425211273575
204.96129294921414
205.24418587709783
205.87681870202212
207.20130420134225
209.79087819359347
214.51110256032612
222.52880699344377
235.23940946526142
254.39454730400237
331.4560297891669
284.3837584677106
248.05940234451074
221.4594600680109
203.0359153628047
190.9550538064278
183.44379910321285
179.00649471036
176.50966503807294
175.16780427971608
174.47707301141804
174.1355338631783
173.9728659141465
173.89804674077385
173.86475345533793
173.85046988959562
173.8448114328973
173.8435795638383
173.8463479423914
173.85676959023132
173.88617421409847
173.96269211932196
174.15004483802255
174.58152497254895
175.51367029774997
177.39758873341202
180.95200530950135
187.20444862303128
197.45706126869771
213.15549131271288
235.23942875377756
291.50325984246024
248.05938366878388
215.08034773066828
191.31722412159957
175.07724324186617
164.54634284049982
158.05844742993915
154.2537134317722
152.125012973064
150.98590058131143
150.40134350778123
150.11290838794477
149.97571292012233
149.9126609772031
149.88464057799044
149.8727161150197
149.86830522815342
149.8683460332534
149.87375789601847
149.89087966116222
149.9370317795697
150.05315722002993
150.32825945187903
150.940935199139
152.2203126101796
154.71929766909207
159.27696949901045
167.02991509696378
179.32502719688222
197.45705175337525
222.5288160809514
261.4801274965445
221.4594351898126
191.31722667585967
169.7268668940167
155.02762973092644
145.51341065438427
139.65319973439676
136.21304870586704
134.28456582677427
133.2499084317234
132.71735104840405
132.45372606645168
132.32791979731837
132.2699257773038
132.24411796764156
132.23324608923951
132.22965244722974
132.23112295915308
132.24007334486308
132.26613546346877
132.33380551905194
132.49858123537314
132.87640224643587
133.6907251592712
135.33663741845766
138.45003771523756
143.95361209041684
153.03720941088133
167.02992937692977
187.2044613719791
214.5110941846017
240.1830574435206
203.03589527846907
175.07723379059644
155.02768338622303
141.34216220149298
132.45241037281906
126.9540119497828
123.7119404821235
121.88640835972326
120.9027638226506
120.39441189610541
120.14183033535711
120.02089084771266
119.96499108288272
119.94011145523265
119.929803090069
119.9269773092049
119.93023375009734
119.94370900867884
119.9808237727426
120.07393686692976
120.29352835299338
120.78138297435615
121.80065004191118
123.79934397548594
127.47184971772917
133.78829731413856
143.95360597586986
159.27696538335454
180.95200315669368
209.79088436824728
225.89916313808695
190.95508278723125
164.5463812415508
145.5133830427973
132.45239998329058
123.92339612495375
118.62183527980004
115.48164688009767
113.70635970722284
112.74642052481525
112.24881775793628
112.00093679905416
111.88199496953989
111.82694491082708
111.80249352526339
111.79260941919564
111.79065418955379
111.79609401632014
111.81496160749673
111.86468586243564
111.98546530015966
112.26173197839991
112.8575513896561
114.06735159606741
116.37643578082981
120.51432818094099
127.47184746856401
138.4500388853718
154.71930456920774
177.39756858675506
207.20129705111648
216.8268392903786
183.44381804572748
158.0584875421159
139.653167410816
126.9540002349473
118.62183268318684
113.42175934568013
110.33139838125436
108.57948592489745
107.63007388209617
107.13704145705944
106.89108281066368
106.77293731307901
106.7182418212831
106.69404349637075
106.68457854251317
106.68363458961485
106.69158502232882
106.71640249648016
106.7793930527039
106.92785006559676
107.25793477442255
107.95093266297843
109.32313426654343
111.8826997278469
116.37643298765556
123.7993377788979
135.3366281377652
152.2203102041719
175.5136678702395
205.8768276659986
211.359234347516
179.0065187396882
154.25366243434848
136.21302126056742
123.71193851279479
115.48165442565188
110.3313967311255
107.26429274429235
105.52278562915643
104.5778617925666
104.08669784063495
103.84150011446964
103.72367057915562
103.66914662775592
103.64515431852432
103.63614277572344
103.6363197994952
103.64695436611883
103.67784098189834
103.75370320865642
103.92765711028102
104.30474994596969
105.07815853839674
106.57761706636735
109.32313293128355
114.06734980533938
121.80065112147521
133.69072608834057
150.94092172070265
174.58150618686852
205.244176117776
208.22501070508125
176.50969664135275
152.1249686164679
134.28454866542728
121.88640961570849
113.70635288833678
108.57948471027302
105.52278985616165
103.7857377400478
102.84265586858744
102.35223126318336
102.10732885750008
101.9896323635143
101.93521795151236
101.91142654234119
101.90289802505936
101.90423775714899
101.91753270889697
101.95414351129206
102.0415340788127
102.23714551794878
102.65207566673186
103.48678904318638
105.07815974264685
107.95093272679125
112.85755055962275
120.7813817648322
132.8763983437302
150.32826305015868
174.15005118596062
204.96131154323783
206.51151571652645
175.16774077369874
150.9858791240046
133.24990574261093
120.90277508088901
112.74641980991115
107.63007774044951
104.57786109937989
102.84265526103361
101.90030410704335
101.41016670363483
101.16538112381212
101.04775275696413
100.9934299280644
100.96984167977492
100.96179965867827
100.9642615053867
100.98000028764505
101.02160582423097
101.11853936023799
101.33114357118706
101.77419902599532
102.6520748786624
104.30474964860387
107.25793466932038
112.26173167057685
120.29352842126923
132.498565932546
150.05314327297492
173.96267566094275
204.84251232285118
205.6154994713472
174.4770240785683
150.4013327565349
132.71735612909643
120.39440412916761
112.24881909384945
107.13704689520891
104.08669796460543
102.3522322124468
101.41016664972406
100.92014158760736
100.67540880853689
100.55782871441635
100.50359336409339
100.48020506630664
100.47262213986515
100.47609095161062
100.49391220099358
100.53955534337709
100.64380162525465
100.8687442254723
101.33114424265045
102.23714577039752
103.92765635979403
106.92784880126392
111.98546417498052
120.07393417788624
132.3338039790488
149.93703659002495
173.8861826606063
204.7955752530351
205.1659008563456
174.13550278644323
150.1129072742706
132.45373798804536
120.14182378107587
112.00093987077491
106.89107998399514
103.84150066461142
102.10732717408125
101.16538113926919
100.67540925488181
100.43071281314218
100.31317921628691
100.25903169551906
100.23583215833352
100.22865567657045
100.23296633847956
100.25243613284346
100.30110782749952
100.41055149602586
100.64380210257325
101.11853973783512
102.04153374665908
103.75370469545788
106.7793954931281
111.86469080585175
119.98081979879817
132.2661302916111
149.8908806894265
173.85677113489356
204.77822138373375
204.9490145494247
173.97286218608497
149.97573045225764
132.32790909422621
120.02089286553299
111.8820044914576
106.77293671439179
103.72367309205625
101.98963151055159
101.0477532438336
100.55782845614551
100.3131790747888
100.19570435761888
100.14165088160121
100.11862589784687
100.11179079775476
100.11676063965503
100.13744658308745
100.18823093395962
100.3011075033508
100.5395552307827
101.02160635940461
101.95414224848668
103.67784047105252
106.71640150773159
111.8149598609164
119.94370758850681
132.24007191017716
149.87376409104724
173.84632553799125
204.77251328238515
204.8480343947095
173.89804656602894
149.91268340753447
132.26991566736712
119.96499426616705
111.82693949766083
106.7182420879744
103.6691447922247
101.93521742127089
100.99343069074716
100.50359303181583
100.2590316689371
100.14165084968978
100.0877124841412
100.06485531214773
100.05830039589377
100.0637598620631
100.08528674190299
100.13744653719807
100.25243621660469
100.49391214287263
100.98000061798746
101.91753259475101
103.64695577011648
106.6915877054258
111.79609156087838
119.9302303078474
132.23111861015113
149.86834701324213
173.84358330050358
204.77179569899408
204.80259707751281
173.86477260960902
149.8846281334736
132.24411852540615
119.94012416489196
111.80249212796913
106.69404773469607
103.64515384299993
101.91142650200366
100.96984151838566
100.48020504914571
100.23583225827315
100.11862586622337
100.06485534156857
100.04218135216769
100.03586540895168
100.04168053522217
100.06375983591226
100.11676056441777
100.23296622206641
100.47609097057263
100.96426127084884
101.90423658317638
103.63631930285725
106.68363345829849
111.79065343625015
119.92697663413459
132.22965212458413
149.86829052873003
173.84480774675006
204.77458479723674
204.78280475741877
173.85049151741177
149.87270401310434
132.23324862352257
119.92979380016864
111.79260910974145
106.68457492235814
103.63614291219798
101.9028986182781
100.96179946770798
100.47262218766205
100.22865543008497
100.11179080426521
100.0583003500277
100.03586540928679
100.02978129666928
100.03586542063172
100.05830036722904
100.11179088429229
100.22865553962863
100.47262204925404
100.96180003808087
101.90289800182214
103.63614438174875
106.68457700265827
111.7926072710534
119.92980102689178
132.23324213557916
149.87272058055802
173.8504605775501
204.78280667868248
204.77461363222983
173.84478819574574
149.8683112389142
132.22966908554068
119.9269743274417
111.79066028768834
106.68363359920339
103.63632110234306
101.90423657534654
100.96426188427706
100.47609136338995
100.23296621176172
100.11676074336654
100.06375984831315
100.04168054628485
100.03586542944693
100.04218137075559
100.0648552855666
100.11862589521063
100.23583208264002
100.48020474710292
100.96984150556992
101.91142545655235
103.64515364035013
106.6940432753349
111.80249326311655
119.9401118464559
132.24410222858396
149.88463788879795
173.86473752175436
204.80258915311248
204.77182759922684
173.84356196512985
149.86835587008994
132.23110727714266
119.93023271984566
111.7960877553444
106.69158498804853
103.6469567546039
101.91753148672979
100.98000086982108
100.49391191651091
100.25243605145434
100.13744649861596
100.08528671538436
100.06375988224129
100.05830040285501
100.06485531899385
100.08771252038139
100.14165089802592
100.25903159131252
100.50359330393815
100.99343031171323
101.93521814854324
103.66914580000417
106.71824063029318
111.82694337932163
119.96498837382964
132.26992447312963
149.91265306036942
173.89803812607252
204.84805629111258
204.7724771801184
173.84633793362408
149.8737740866884
132.24005846198548
119.94371115867688
111.81495564290083
106.71640193866575
103.67783890632369
101.9541425620196
101.02160667323945
100.53955497232081
100.30110774696709
100.18823088745162
100.1374465544582
100.11676063555292
100.11179079451252
100.1186258789272
100.14165091358318
100.19570430952541
100.3131790178749
100.55782863264898
101.04775305623733
101.98963208665536
103.72367169521134
106.77293947822587
111.88199967600988
120.02088645947883
132.32792210074518
149.9757125364583
173.97286587910546
204.94905067484245
204.77820027977114
173.85678189479225
149.89086317348523
132.26613293112263
119.98081330068892
111.86468617618223
106.7793970765433
103.75370272577317
102.04153422545726
101.11853931738666
100.6438017889142
100.41055141748288
100.30110776681123
100.25243618443247
100.23296635552626
100.22865567926588
100.23583217260482
100.25903171341315
100.31317917188808
100.43071293540068
100.67540903163653
101.16538147287261
102.10732759117334
103.8414995747106
106.89108184561378
112.00093525133641
120.1418287380527
132.45371490176888
150.11290099620655
174.1355247245527
205.16596001949173
204.79558422141997
173.8861918283075
149.9370159825681
132.33380826064771
120.07392736812238
111.98546486270196
106.92784612759134
103.92765696604538
102.23714638231114
101.33114376861015
100.86874472041147
100.64380156073624
100.5395552922494
100.49391218540828
100.47609092512138
100.47262214219381
100.48020510113746
100.50359333184947
100.55782869595798
100.67540888654322
100.9201414612413
101.41016690214292
102.35223131640642
104.08669940690397
107.13704366061127
112.24881488475837
120.39441331138283
132.71734580305002
150.40134310687768
174.4770731413586
205.61543893318975
204.8425175260598
173.96264845472103
150.05314605432255
132.49855611551828
120.29352138110397
112.26173430327303
107.25793148687957
104.30475056492945
102.65207417697903
101.77419848213466
101.33114342520817
101.11853922745786
101.0216059364129
100.98000035791439
100.96426151553908
100.96179966282281
100.96984167999767
100.99342990118683
101.04775281328344
101.16538100822206
101.41016688174545
101.90030427636187
102.84265463034687
104.57786218234064
107.63007511476825
112.74642395246188
120.90276166561777
133.2499071771524
150.98590865717418
175.16781532786064
206.5114993044948
204.96133891923404
174.15004178724098
150.3282829277611
132.87639888439162
120.78139041657657
112.85755155284079
107.95093756459927
105.07816365272417
103.48679045732523
102.65207853053298
102.23714724788289
102.04153570442756
101.95414514085867
101.91753427372159
101.90423942922857
101.90289974878667
101.91142813827514
101.93521960885666
101.9896340106122
102.10733032167859
102.35223283268678
102.84265662916467
103.785739464783
105.52278836211866
108.57948208473114
113.70635801347426
121.8864014931042
134.28455521638853
152.12500538330616
176.50963712798074
208.22498694021
205.24416896949373
174.58153066954588
150.94092333048314
133.6907273461423
121.80066350760546
114.06735120973455
109.32313934886527
106.5776199500062
105.07816114521435
104.30475290154436
103.92765991036364
103.75370645375402
103.67784420499629
103.64695739853553
103.63632278274665
103.63614573177618
103.64515727524882
103.66914962356057
103.72367347686833
103.84150316825347
104.08670067897572
104.57786411161318
105.52278862939542
107.26429317638811
110.33140079639752
115.48164645932258
123.71193945944863
136.21304070892452
154.25371106532037
179.00648805641242
211.35921857163575
205.87681179646688
175.51368673216095
152.22030561620304
135.33663689061547
123.79933675146327
116.37643892255167
111.88270500443154
109.32313591601142
107.95093699494015
107.25793747025472
106.92785255523144
106.7793955239775
106.71640480036876
106.6915876208391
106.68363732617678
106.6845810033639
106.69404616307821
106.71824442234242
106.77293978254393
106.89108542478007
107.1370437494158
107.6300768217415
108.57948730012481
110.33139989390536
113.42176625527935
118.62183220840956
126.9540108190876
139.65320003250017
158.0584437954266
183.44379635166092
216.82684127729007
207.2013048266971
177.3975532063677
154.7192929212645
138.45004574255924
127.4718415007543
120.51433109486334
116.37643450830602
114.0673504937757
112.85755106399446
112.2617314945192
111.98546575607399
111.8646864674663
111.81496180393005
111.79609408484484
111.79065418414355
111.79260949324762
111.80249363654939
111.8269450182887
111.88199533075571
112.00093687215465
112.24881784582236
112.74642126200388
113.70635935921565
115.48164935972218
118.62183127419036
123.92339905196033
132.45241668080345
145.51342067427188
164.54635547629033
190.95506186379055
225.89916572935553
209.79088272166103
180.95197782625442
159.27696064460943
143.95359043609093
133.78829304739628
127.47184571610431
123.79933533680315
121.80064579748726
120.78137671133112
120.2935217655274
120.07393020805891
119.9808167414065
119.94370259014582
119.93022761722057
119.92697066005785
119.92979687260707
119.94010507744667
119.96498454673139
120.02088449679647
120.14182394116598
120.39440589786037
120.90275703620483
121.88640249722873
123.7119380524266
126.95400515259769
132.45241143343546
141.34217823132843
155.02763952906122
175.07720182392598
203.03587507706837
240.18305863613875
214.5111055065714
187.20447441114936
167.0299630068635
153.03722475057316
143.95363717190702
138.4500561996631
135.3366555067926
133.69074383325972
132.87642042356245
132.49860085855235
132.333825474752
132.26615469575006
132.24009230726782
132.23114175985438
132.2296714780986
132.23326512169902
132.244137039113
132.2699451947501
132.3279386419899
132.45374509465753
132.7173703651576
133.24992676804408
134.28458522772172
136.21306315465728
139.65321710721062
145.51343458079964
155.0276635102754
169.72684322280617
191.31719480032942
221.4594076493113
261.4801322954423
222.5288262181256
197.45708411690424
179.3250428112625
167.02994171443865
159.27699480072894
154.71931604068877
152.22033604021408
150.9409560039194
150.32827969221535
150.05317723932913
149.93705105860022
149.89089985199013
149.87377853230993
149.86836595790672
149.86832582155958
149.87273642241033
149.8846606520788
149.9126811850224
149.97573317736226
150.11292868689853
150.40136297767063
150.9859208996196
152.1250344625764
154.25373033561146
158.05846761847528
164.54636939008236
175.07721690448082
191.3171973409445
215.08031580130512
248.05935416518233
291.503259827417
235.23943126019543
213.15551482580352
197.4570642402568
187.20446298285796
180.9520125544671
177.39759579848382
175.51367816561176
174.58153235902398
174.1500543745608
173.96270200123337
173.88618300641141
173.85677806992166
173.8463562093788
173.8435883304116
173.84482009678788
173.85047862811066
173.86476260543083
173.8980550941967
173.97287471162278
174.1355428529934
174.47708131345843
175.16781316290266
176.5096706617923
179.00650249960316
183.44381092541815
190.95507183065254
203.0358832920727
221.4594151906408
248.0593482223589
284.3837057095283
331.45593849680984
254.39456370588917
235.23940403678773
222.52881317007035
214.51110776384772
209.79087553007636
207.20130736282337
205.87681874069378
205.24418658487994
204.96129336240074
204.84251952784572
204.79558842287605
204.77820766818218
204.7725097393696
204.7717967489665
204.77459291223653
204.7828043993592
204.80259683706578
204.8480555843743
204.94904068760943
205.16595874264908
205.61544237443232
206.51148372483186
208.22500284551586
211.3592206618886
216.8268361233306
225.89916081331555
240.18305727308095
261.48012410736874
291.5032368422691
331.45592056545246
380.77060998135636
