# vtk DataFile Version 2.0
Unstructured Grid Example
ASCII
DATASET UNSTRUCTURED_GRID

POINTS 961 float
0.150000006 -0.00839745998 0
0.146666661 -0.00839745998 0
0.143333331 -0.00839745998 0
0.140000001 -0.00839745998 0
0.13666667 -0.00839745998 0
0.13333334 -0.00839745998 0
0.129999995 -0.00839745998 0
0.126666665 -0.00839745998 0
0.123333335 -0.00839745998 0
0.119999997 -0.00839745998 0
0.116666667 -0.00839745998 0
0.113333337 -0.00839745998 0
0.109999999 -0.00839745998 0
0.106666669 -0.00839745998 0
0.103333332 -0.00839745998 0
0.100000001 -0.00839745998 0
0.0966666639 -0.00839745998 0
0.0933333337 -0.00839745998 0
0.0900000036 -0.00839745998 0
0.086666666 -0.00839745998 0
0.0833333358 -0.00839745998 0
0.0799999982 -0.00839745998 0
0.0766666681 -0.00839745998 0
0.0733333305 -0.00839745998 0
0.0700000003 -0.00839745998 0
0.0666666701 -0.00839745998 0
0.0633333325 -0.00839745998 0
0.0599999987 -0.00839745998 0
0.0566666685 -0.00839745998 0
0.0533333346 -0.00839745998 0
0.0500000007 -0.00839745998 0
0.148333326 -0.0112842107 0
0.144999996 -0.0112842107 0
0.141666666 -0.0112842107 0
0.138333336 -0.0112842107 0
0.135000005 -0.0112842107 0
0.13166666 -0.0112842107 0
0.12833333 -0.0112842107 0
0.125 -0.0112842107 0
0.12166667 -0.0112842107 0
0.118333332 -0.0112842107 0
0.115000002 -0.0112842107 0
0.111666664 -0.0112842107 0
0.108333334 -0.0112842107 0
0.104999997 -0.0112842107 0
0.101666667 -0.0112842107 0
0.0983333364 -0.0112842107 0
0.0949999988 -0.0112842107 0
0.0916666687 -0.0112842107 0
0.088333331 -0.0112842107 0
0.0850000009 -0.0112842107 0
0.0816666633 -0.0112842107 0
0.0783333331 -0.0112842107 0
0.075000003 -0.0112842107 0
0.0716666654 -0.0112842107 0
0.0683333352 -0.0112842107 0
0.0649999976 -0.0112842107 0
0.0616666675 -0.0112842107 0
0.0583333336 -0.0112842107 0
0.0549999997 -0.0112842107 0
0.0516666658 -0.0112842107 0
0.0483333319 -0.0112842107 0
0.146666661 -0.0141709624 0
0.143333331 -0.0141709624 0
0.140000001 -0.0141709624 0
0.13666667 -0.0141709624 0
0.13333334 -0.0141709624 0
0.129999995 -0.0141709624 0
0.126666665 -0.0141709624 0
0.123333335 -0.0141709624 0
0.119999997 -0.0141709624 0
0.116666667 -0.0141709624 0
0.113333337 -0.0141709624 0
0.109999999 -0.0141709624 0
0.106666669 -0.0141709624 0
0.103333332 -0.0141709624 0
0.100000001 -0.0141709624 0
0.0966666639 -0.0141709624 0
0.0933333337 -0.0141709624 0
0.0900000036 -0.0141709624 0
0.086666666 -0.0141709624 0
0.0833333358 -0.0141709624 0
0.0799999982 -0.0141709624 0
0.0766666681 -0.0141709624 0
0.0733333305 -0.0141709624 0
0.0700000003 -0.0141709624 0
0.0666666701 -0.0141709624 0
0.0633333325 -0.0141709624 0
0.0599999987 -0.0141709624 0
0.0566666685 -0.0141709624 0
0.0533333346 -0.0141709624 0
0.0500000007 -0.0141709624 0
0.0466666669 -0.0141709624 0
0.144999996 -0.0170577131 0
0.141666666 -0.0170577131 0
0.138333336 -0.0170577131 0
0.135000005 -0.0170577131 0
0.13166666 -0.0170577131 0
0.12833333 -0.0170577131 0
0.125 -0.0170577131 0
0.12166667 -0.0170577131 0
0.118333332 -0.0170577131 0
0.115000002 -0.0170577131 0
0.111666664 -0.0170577131 0
0.108333334 -0.0170577131 0
0.104999997 -0.0170577131 0
0.101666667 -0.0170577131 0
0.0983333364 -0.0170577131 0
0.0949999988 -0.0170577131 0
0.0916666687 -0.0170577131 0
0.088333331 -0.0170577131 0
0.0850000009 -0.0170577131 0
0.0816666633 -0.0170577131 0
0.0783333331 -0.0170577131 0
0.075000003 -0.0170577131 0
0.0716666654 -0.0170577131 0
0.0683333352 -0.0170577131 0
0.0649999976 -0.0170577131 0
0.0616666675 -0.0170577131 0
0.0583333336 -0.0170577131 0
0.0549999997 -0.0170577131 0
0.0516666658 -0.0170577131 0
0.0483333319 -0.0170577131 0
0.0450000018 -0.0170577131 0
0.143333331 -0.0199444648 0
0.140000001 -0.0199444648 0
0.13666667 -0.0199444648 0
0.13333334 -0.0199444648 0
0.129999995 -0.0199444648 0
0.126666665 -0.0199444648 0
0.123333335 -0.0199444648 0
0.119999997 -0.0199444648 0
0.116666667 -0.0199444648 0
0.113333337 -0.0199444648 0
0.109999999 -0.0199444648 0
0.106666669 -0.0199444648 0
0.103333332 -0.0199444648 0
0.100000001 -0.0199444648 0
0.0966666639 -0.0199444648 0
0.0933333337 -0.0199444648 0
0.0900000036 -0.0199444648 0
0.086666666 -0.0199444648 0
0.0833333358 -0.0199444648 0
0.0799999982 -0.0199444648 0
0.0766666681 -0.0199444648 0
0.0733333305 -0.0199444648 0
0.0700000003 -0.0199444648 0
0.0666666701 -0.0199444648 0
0.0633333325 -0.0199444648 0
0.0599999987 -0.0199444648 0
0.0566666685 -0.0199444648 0
0.0533333346 -0.0199444648 0
0.0500000007 -0.0199444648 0
0.0466666669 -0.0199444648 0
0.043333333 -0.0199444648 0
0.141666666 -0.0228312165 0
0.138333336 -0.0228312165 0
0.135000005 -0.0228312165 0
0.13166666 -0.0228312165 0
0.12833333 -0.0228312165 0
0.125 -0.0228312165 0
0.12166667 -0.0228312165 0
0.118333332 -0.0228312165 0
0.115000002 -0.0228312165 0
0.111666664 -0.0228312165 0
0.108333334 -0.0228312165 0
0.104999997 -0.0228312165 0
0.101666667 -0.0228312165 0
0.0983333364 -0.0228312165 0
0.0949999988 -0.0228312165 0
0.0916666687 -0.0228312165 0
0.088333331 -0.0228312165 0
0.0850000009 -0.0228312165 0
0.0816666633 -0.0228312165 0
0.0783333331 -0.0228312165 0
0.075000003 -0.0228312165 0
0.0716666654 -0.0228312165 0
0.0683333352 -0.0228312165 0
0.0649999976 -0.0228312165 0
0.0616666675 -0.0228312165 0
0.0583333336 -0.0228312165 0
0.0549999997 -0.0228312165 0
0.0516666658 -0.0228312165 0
0.0483333319 -0.0228312165 0
0.0450000018 -0.0228312165 0
0.0416666679 -0.0228312165 0
0.140000001 -0.0257179681 0
0.13666667 -0.0257179681 0
0.13333334 -0.0257179681 0
0.129999995 -0.0257179681 0
0.126666665 -0.0257179681 0
0.123333335 -0.0257179681 0
0.119999997 -0.0257179681 0
0.116666667 -0.0257179681 0
0.113333337 -0.0257179681 0
0.109999999 -0.0257179681 0
0.106666669 -0.0257179681 0
0.103333332 -0.0257179681 0
0.100000001 -0.0257179681 0
0.0966666639 -0.0257179681 0
0.0933333337 -0.0257179681 0
0.0900000036 -0.0257179681 0
0.086666666 -0.0257179681 0
0.0833333358 -0.0257179681 0
0.0799999982 -0.0257179681 0
0.0766666681 -0.0257179681 0
0.0733333305 -0.0257179681 0
0.0700000003 -0.0257179681 0
0.0666666701 -0.0257179681 0
0.0633333325 -0.0257179681 0
0.0599999987 -0.0257179681 0
0.0566666685 -0.0257179681 0
0.0533333346 -0.0257179681 0
0.0500000007 -0.0257179681 0
0.0466666669 -0.0257179681 0
0.043333333 -0.0257179681 0
0.0399999991 -0.0257179681 0
0.138333336 -0.0286047198 0
0.135000005 -0.0286047198 0
0.13166666 -0.0286047198 0
0.12833333 -0.0286047198 0
0.125 -0.0286047198 0
0.12166667 -0.0286047198 0
0.118333332 -0.0286047198 0
0.115000002 -0.0286047198 0
0.111666664 -0.0286047198 0
0.108333334 -0.0286047198 0
0.104999997 -0.0286047198 0
0.101666667 -0.0286047198 0
0.0983333364 -0.0286047198 0
0.0949999988 -0.0286047198 0
0.0916666687 -0.0286047198 0
0.088333331 -0.0286047198 0
0.0850000009 -0.0286047198 0
0.0816666633 -0.0286047198 0
0.0783333331 -0.0286047198 0
0.075000003 -0.0286047198 0
0.0716666654 -0.0286047198 0
0.0683333352 -0.0286047198 0
0.0649999976 -0.0286047198 0
0.0616666675 -0.0286047198 0
0.0583333336 -0.0286047198 0
0.0549999997 -0.0286047198 0
0.0516666658 -0.0286047198 0
0.0483333319 -0.0286047198 0
0.0450000018 -0.0286047198 0
0.0416666679 -0.0286047198 0
0.038333334 -0.0286047198 0
0.13666667 -0.0314914696 0
0.13333334 -0.0314914696 0
0.129999995 -0.0314914696 0
0.126666665 -0.0314914696 0
0.123333335 -0.0314914696 0
0.119999997 -0.0314914696 0
0.116666667 -0.0314914696 0
0.113333337 -0.0314914696 0
0.109999999 -0.0314914696 0
0.106666669 -0.0314914696 0
0.103333332 -0.0314914696 0
0.100000001 -0.0314914696 0
0.0966666639 -0.0314914696 0
0.0933333337 -0.0314914696 0
0.0900000036 -0.0314914696 0
0.086666666 -0.0314914696 0
0.0833333358 -0.0314914696 0
0.0799999982 -0.0314914696 0
0.0766666681 -0.0314914696 0
0.0733333305 -0.0314914696 0
0.0700000003 -0.0314914696 0
0.0666666701 -0.0314914696 0
0.0633333325 -0.0314914696 0
0.0599999987 -0.0314914696 0
0.0566666685 -0.0314914696 0
0.0533333346 -0.0314914696 0
0.0500000007 -0.0314914696 0
0.0466666669 -0.0314914696 0
0.043333333 -0.0314914696 0
0.0399999991 -0.0314914696 0
0.0366666652 -0.0314914696 0
0.135000005 -0.0343782231 0
0.13166666 -0.0343782231 0
0.12833333 -0.0343782231 0
0.125 -0.0343782231 0
0.12166667 -0.0343782231 0
0.118333332 -0.0343782231 0
0.115000002 -0.0343782231 0
0.111666664 -0.0343782231 0
0.108333334 -0.0343782231 0
0.104999997 -0.0343782231 0
0.101666667 -0.0343782231 0
0.0983333364 -0.0343782231 0
0.0949999988 -0.0343782231 0
0.0916666687 -0.0343782231 0
0.088333331 -0.0343782231 0
0.0850000009 -0.0343782231 0
0.0816666633 -0.0343782231 0
0.0783333331 -0.0343782231 0
0.075000003 -0.0343782231 0
0.0716666654 -0.0343782231 0
0.0683333352 -0.0343782231 0
0.0649999976 -0.0343782231 0
0.0616666675 -0.0343782231 0
0.0583333336 -0.0343782231 0
0.0549999997 -0.0343782231 0
0.0516666658 -0.0343782231 0
0.0483333319 -0.0343782231 0
0.0450000018 -0.0343782231 0
0.0416666679 -0.0343782231 0
0.038333334 -0.0343782231 0
0.0350000001 -0.0343782231 0
0.13333334 -0.0372649729 0
0.129999995 -0.0372649729 0
0.126666665 -0.0372649729 0
0.123333335 -0.0372649729 0
0.119999997 -0.0372649729 0
0.116666667 -0.0372649729 0
0.113333337 -0.0372649729 0
0.109999999 -0.0372649729 0
0.106666669 -0.0372649729 0
0.103333332 -0.0372649729 0
0.100000001 -0.0372649729 0
0.0966666639 -0.0372649729 0
0.0933333337 -0.0372649729 0
0.0900000036 -0.0372649729 0
0.086666666 -0.0372649729 0
0.0833333358 -0.0372649729 0
0.0799999982 -0.0372649729 0
0.0766666681 -0.0372649729 0
0.0733333305 -0.0372649729 0
0.0700000003 -0.0372649729 0
0.0666666701 -0.0372649729 0
0.0633333325 -0.0372649729 0
0.0599999987 -0.0372649729 0
0.0566666685 -0.0372649729 0
0.0533333346 -0.0372649729 0
0.0500000007 -0.0372649729 0
0.0466666669 -0.0372649729 0
0.043333333 -0.0372649729 0
0.0399999991 -0.0372649729 0
0.0366666652 -0.0372649729 0
0.0333333351 -0.0372649729 0
0.13166666 -0.0401517227 0
0.12833333 -0.0401517227 0
0.125 -0.0401517227 0
0.12166667 -0.0401517227 0
0.118333332 -0.0401517227 0
0.115000002 -0.0401517227 0
0.111666664 -0.0401517227 0
[...]
POINT_DATA 961
SCALARS Temp float 1
LOOKUP_TABLE default
389.987423634613
340.8933480557715
300.68396574330814
269.9906326155211
247.78924574288743
232.5514869298853
222.61594296339075
216.45203622112302
212.80653130529785
210.746551401839
209.6316880260736
209.05235661017474
208.7625720320069
208.62270618767946
208.55743654507725
208.52799525951468
208.51537360268432
208.51095783284885
208.5120064792777
208.5205214664472
208.54546600816158
208.6097029787053
208.76467441291936
209.11710152570996
209.8715023407276
211.38820782565196
214.2468713550793
219.29228553944483
227.63082462904242
240.55865255317414
259.6989096719007
340.89336338834045
293.85653593467026
257.06099978641276
229.64856195842913
210.26253482051789
197.23925338045726
188.9190279108635
183.85563882329194
180.9145736650418
179.28035780193485
178.40958852740513
177.9635560119483
177.74338647946018
177.6384168006038
177.5900114402398
177.56851694710582
177.55974086455402
177.5577646894799
177.56193286681466
177.57719526868942
177.61838375846636
177.7206023289808
177.95946877733385
178.48558314937554
179.5756506174991
181.6959079741053
185.56144653291238
192.1619825161844
202.720010514908
218.57005384497577
240.55867195339596
300.683921631203
257.0609804339636
223.47345735091722
198.84202122240885
181.65216881055707
170.23370052724212
163.00750358200176
158.6440854491008
156.12547399141513
154.73288666518093
153.99364269305653
153.61602067460805
153.42998093775557
153.3414097849991
153.3006503172239
153.2827246602344
153.2759135925099
153.27592259575997
153.28397683516584
153.30854087002578
153.371814604784
153.5237983642673
153.86798825098083
154.60249363515663
156.0766339761891
158.85408587225828
163.7604300082322
171.88101619345454
184.47218536698955
202.72000103512676
227.6308340260266
269.9905801509783
229.64853564181143
198.84202331802015
176.39667098976258
160.80300351234519
150.47232346062643
143.9415101388125
139.9971726512465
137.71771778368424
136.45491505777778
135.7829138534594
135.43868713188505
135.26860341506136
135.18740835935594
135.15001135946716
135.1337544551972
135.12825156163143
135.13043069705137
135.14354455944238
135.18024528998825
135.27135419175406
135.4834588992093
135.94925474064266
136.91323098137775
138.7899343148075
142.22171675012515
148.1100251643797
157.58503567445493
171.8810308366141
192.16199536912703
219.29227713016263
247.7892009352836
210.2625128437674
181.65215798169316
160.80306039845277
146.29440180287733
136.65607690833008
130.54169300644534
126.83440962240873
124.68320807851366
123.48659983281821
122.84732072949262
122.51864509154944
122.3556987821519
122.27770363671247
122.24178729940495
122.22645268559134
122.22215554596397
122.22697048008467
122.24641816245361
122.29786385207798
122.42140907505005
122.70047010100451
123.29543841817704
124.49149657514958
126.75522469162823
130.7841323187741
137.5221186555923
148.11001886637754
163.76042574863175
185.56144449221352
214.24687745704168
232.55144406806636
197.23928401095992
170.23374109497044
150.4722949612251
136.65606608841694
127.43315057229204
121.5545983795219
117.974477148208
115.88865232990126
114.72420846703112
114.1001357271118
113.7783912131175
113.61851496572669
113.54188189338622
113.50667682890209
113.49203243186719
113.48906519900403
113.49703594680481
113.52391169334572
113.59196434550289
113.75043390939797
114.09826424510476
114.81958324584099
116.23155083965925
118.83737859313088
123.36762832808868
130.7841298772318
142.22171796048707
158.85409280514043
181.69588754706396
211.38820094630847
222.6159495951472
188.9190478675849
163.00754520119398
143.9414767923129
130.541680660751
121.55459553631204
115.80280036174388
112.28761157380217
110.23358238052118
109.08408457800887
108.4667817769273
108.14800699888464
107.98941389376115
107.91337615553768
107.87859721064862
107.86461726520784
107.8631614308203
107.87470639824639
107.90968453063572
107.99506268444584
108.18829104493511
108.60131659427998
109.43660444886434
111.03372008947237
113.91840554714346
118.83737557152244
126.75521809534986
138.78992452585277
156.07663176674984
179.5756482704209
209.87151124372537
216.45205037093228
183.85566365626107
158.6440332557666
139.997144085408
126.8344079391184
117.97448545168447
112.28760971289317
108.80408516597119
106.76485935572882
105.6220299375386
105.00762594348166
104.69008304048256
104.53202362511443
104.45628237683756
104.4218435512331
104.40856593441856
104.40876066893117
104.42408713610352
104.46727079705538
104.56939282327602
104.79462616294805
105.26478280700955
106.19505121928611
107.938871166573
111.03371859241034
116.23154879457077
124.49149781658049
136.91323198933134
154.6024798695357
178.485564238024
209.11709171509477
212.80653790397272
180.9146058868942
156.1254294692098
137.71770039795803
124.68320957167947
115.88864484738434
110.23358092476444
106.7648642416848
104.7322660693088
103.59230058095778
102.97909770056502
102.66205574342716
102.50423046096475
102.42867802149678
102.39456266760483
102.38202138685756
102.38391144879962
102.4029626843069
102.45386246680775
102.57098796112864
102.82351941033724
103.34002946016433
104.34357856462245
106.19505258793845
109.43660461401414
114.81958244101946
123.2954371565387
135.9492507507364
153.8679918871276
177.95947526891072
208.76469308032546
210.74658570283702
179.28029414496004
154.73286481234578
136.45491218682224
123.48661147899337
114.72420766376219
109.08408883187458
105.62202904472171
103.59229982541366
102.4535235547055
101.84080855223098
101.52397382222279
101.36627048275614
101.29087217616707
101.25707827787322
101.24527161551025
101.24878896927652
101.2712544812566
101.32889538114172
101.45850026114805
101.73263450724627
102.28403203954089
103.34002853893763
105.2647824953534
108.60131645315458
114.09826387302095
122.7004700904906
135.48344305317542
153.52378419292597
177.72058576326097
208.6096942580297
209.63174584241048
178.40953922228115
153.9936314279395
135.78291904662663
122.84731229021237
114.10013705916586
108.46678771444518
105.00762609917656
102.97909882518161
101.84080848113683
101.22829316291016
100.91155518526695
100.75393693388953
100.67868296131657
100.64520237769715
100.63408582339811
100.63906159793879
100.6644420727668
100.72756156746388
100.8668159096254
101.15683815514595
101.73263534781034
102.82351970460486
104.7946252977591
108.18828961212839
113.75043273034372
122.42140631159994
135.27135257704265
153.37181953359456
177.6183922361558
208.54545270820842
209.052297484774
177.96352433412156
153.61601920845797
135.43869917066436
122.51863796066233
113.77839451914653
108.14800379348026
104.69008366690639
102.66205374165601
101.52397383260404
100.91155576273846
100.59488368064127
100.43734542301358
100.36223489163847
100.32904920709633
100.31854371751946
100.32474229903941
100.35244417986132
100.41971188805302
100.56591450103723
100.8668165166605
101.45850073004328
102.57098756917699
104.56939457007638
107.99506544978911
113.5919697131873
122.29785964742038
135.1802399261473
153.3085419499773
177.57719689938068
208.52053539783574
208.7625451853926
177.74338210789315
153.42999842453176
135.26859199222625
122.35570082238473
113.61852519726892
107.98941322537947
104.53202648038817
102.5042294653312
101.36627108571207
100.75393660181146
100.43734523758746
100.27990569252194
100.204947881222
100.1720355050206
100.16204582792686
100.16920889014202
100.19864069057519
100.26884108036298
100.41971145823841
100.72756142151768
101.32889604502103
102.45386097298454
104.46727020378577
107.90968342160261
113.52390981687287
122.24641666879079
135.1435430858868
153.28398317199358
177.5619103675121
208.51201008543828
208.62268473636237
177.6384162369891
153.34143237813097
135.18739775369855
122.27770702289733
113.54187595396068
107.91337648311242
104.4562802628897
102.42867739666302
101.2908731126944
100.67868254087172
100.36223486333138
100.20494783832153
100.13017495771331
100.09752630069995
100.08796397770664
100.09585209199778
100.12649747749137
100.19864062860334
100.35244429195478
100.6644420037859
101.27125489242914
102.40296254884859
104.42408875306171
107.8747094013099
113.49703328136724
122.22696683849006
135.13042619114267
153.27592366884076
177.55776843784483
208.51095719223378
208.55743604345182
177.59003056969124
153.3006375260739
135.15001197685825
122.2418007586019
113.50667536400138
107.87860192702428
104.42184303133281
102.39456262703551
101.25707807925187
100.64520236057376
100.3290493385793
100.17203546213389
100.0975263426336
100.0651646437582
100.05597068414065
100.06439415350452
100.095852055627
100.16920878801534
100.32474214635313
100.63906162042939
101.24878867824351
102.3839100540719
104.40876009858539
107.86316018904263
113.48906438211054
122.22215483409018
135.12825123248973
153.27589853007515
177.5597371297972
208.51536550276674
208.52799578779496
177.56853876328208
153.28271246455606
135.13375720573327
122.22644279337172
113.49203215899152
107.86461321594807
104.40856611019983
102.38202209349376
101.2452713909261
100.63408588856483
100.31854339345229
100.16204583843565
100.08796391339625
100.05597068481538
100.04713526757676
100.0559707011221
100.08796393799365
100.16204594582217
100.31854353753091
100.63408571132078
101.2452720834275
102.38202136238363
104.40856778455056
107.86461553989933
113.49203010395124
122.22645045678334
135.13375037673438
153.28272912654893
177.56850750560403
208.5279975648414
208.51539475871462
177.55971763820233
153.2759198236409
135.12826885109268
122.2221524580459
113.48907182588209
107.86316036624531
104.40876219533834
102.38391004646762
101.24878944201734
100.63906212221431
100.3247421359054
100.1692090333699
100.09585207397332
100.06439416956249
100.05597071370444
100.06516467031862
100.09752626410831
100.1720355023219
100.32904910945324
100.64520197561572
101.25707806831657
102.39456137545626
104.42184279007931
107.87859694923584
113.50667654240937
122.24178769097125
135.14999497042393
153.30064756658146
177.5899953104522
208.55742839095322
208.5109892621938
177.55774709990374
153.27593270921057
135.13041437254785
122.22696945294962
113.49702914235733
107.87470639474833
104.42408988587425
102.40296124797655
101.27125520426036
100.66444171621163
100.35244407792793
100.19864057500295
100.12649744026889
100.09585212089937
100.08796398710427
100.09752631053865
100.13017500802844
100.20494790416191
100.36223476081352
100.67868288292017
101.29087264859625
102.4286782517682
104.45628142525356
107.91337482557577
113.54188020601107
122.27770079767183
135.18740692024707
153.3414017366763
177.6384081576818
208.6227073086311
208.51197377745405
177.56192277381263
153.28399328849193
135.14352918747466
122.24642045002773
113.52390526279227
107.90968394062133
104.46726840151564
102.45386135689806
101.32889642892378
100.7275610946393
100.41971177858534
100.2688410167905
100.19864065060302
100.16920888439526
100.16204582372397
100.1720354773707
100.20494792524667
100.27990562734506
100.4373451609921
100.75393682771119
101.36627084949333
102.50423014734801
104.53202488731604
107.98941630926645
113.61852004447142
122.35569413183325
135.26860585935955
153.42998054600014
177.74338651600814
208.76258219742672
208.5205141968048
177.57720769038514
153.30852405672434
135.18024277415364
122.29785277823375
113.5919647347091
107.99506721783747
104.56939232806296
102.5709881392953
101.45850021218222
100.86681612354352
100.56591439544056
100.41971180626433
100.35244425199394
100.32474231895632
100.31854372073646
100.32904922774374
100.36223491687474
100.43734536304586
100.59488383981775
100.9115554808391
101.52397424105195
102.66205424935832
104.69008242068406
108.148005953104
113.77838961837197
122.518643381797
135.43867562511545
153.6160132684184
177.9635470267313
209.05235726468416
208.54546177427338
177.61840152504203
153.37179869039866
135.27135706185334
122.42139915027639
113.75043353262268
108.18828662238026
104.7946260086991
102.82352042477605
101.732634767524
101.15683878174261
100.86681582029335
100.72756149770586
100.66444205191225
100.6390615640095
100.63408582552586
100.64520242186039
100.67868291818743
100.75393690605392
100.91155528881538
101.22829300209764
101.84080879589746
102.97909778556546
105.00762778724217
108.46678420328841
114.10013261438667
122.84732233356091
135.78290854173608
153.99364223573716
178.40958866822626
209.63168483646382
208.60969970316367
177.7205585489523
153.52378720655867
135.48343290809825
122.70046269735447
114.09826672010263
108.60131293379636
105.26478354617012
103.34002769973486
102.28403138036373
101.7326343183496
101.45850009154985
101.3288955323429
101.27125455868826
101.24878897959952
101.24527162227928
101.257078279448
101.29087214094312
101.36627055830577
101.52397367124138
101.8408087776098
102.45352377798567
103.59229909316107
105.62203035741467
109.08408598346985
114.72421223492096
123.48659740618993
136.45491367827023
154.73289480352713
179.28036893991927
210.74656820271213
208.7647206658942
177.9594660928512
153.8680122667337
135.94925147914432
123.29544649157151
114.81958361126466
109.43661010466889
106.19505710878539
104.34358023747608
103.3400328995357
102.82352144971718
102.57098988613433
102.4538644044947
102.40296454515247
102.38391343775896
102.38202342899275
102.39456456108319
102.428679978908
102.5042324136997
102.6620574623232
102.97909955904704
103.59230146398511
104.73226813395006
106.76486263265687
110.23357813337125
115.88865066303217
124.6832010311004
137.71770719093675
156.12546677690935
180.91454541372053
212.8065135047737
209.1170846601656
178.4855890553403
154.60248168074622
136.91323352826467
124.49151105170009
116.23155048448365
111.03372580457054
107.93887444585015
106.19505420450784
105.264786196962
104.79462938032825
104.56939659260105
104.46727448310757
104.42409061808685
104.40876409992701
104.40856933219516
104.42184694793963
104.45628582004382
104.53202693297189
104.69008654131561
105.00762920328025
105.6220325517394
106.76486282397872
108.80408567016603
112.28761429510024
117.97447688700277
126.83440892189995
139.99716420086523
158.6440830141525
183.85563213056787
216.4520343993678
209.87149556096662
179.57566727972585
156.0766272545305
138.7899337460635
126.7552170755576
118.83738206396357
113.91841138256636
111.03372189925396
109.43660939420806
108.60131955037113
108.18829379715103
107.9950654375928
107.90968710252467
107.87470930079705
107.86316446718884
107.86462001179619
107.87860017127905
107.91337905175563
107.98941663487223
108.1480099122534
108.46678428570185
109.08408789412101
110.23358383905212
112.28761314841235
115.80280801829186
121.55459481714807
130.54169163304215
143.94151036617066
163.00749987778883
188.91902542171937
222.61595156220088
211.38820880808314
181.69587213989863
158.85408103339557
142.22172499782346
130.78412361396394
123.36763146937407
118.8373771296296
116.23154956981243
114.81958284723316
114.09826369499893
113.75043445652562
113.59196494799748
113.52391188765081
113.49703601589823
113.48906518861307
113.49203250936215
113.50667694536762
113.54188199256102
113.61851534954924
113.77839131019302
114.10013579048835
114.72420932577286
115.88865187763626
117.97447990168746
121.55459371666528
127.43315340266285
136.65608336985434
150.47233387463567
170.2337137125184
197.23926206279566
232.55144636518787
214.24687559652875
185.56141896194788
163.76042080738745
148.11000267810326
137.52211418583306
130.78412811070805
126.75521544014794
124.49149226997659
123.29543165982342
122.70046305337075
122.421401996812
122.29785640052546
122.24641135943592
122.22696394432093
122.22214849909108
122.22644606929101
122.24178052652283
122.27769670170929
122.35569205255362
122.51863828881247
122.8473144470675
123.48659260167805
124.68320177204065
126.83440731192236
130.54168553306639
136.6560778590834
146.2944184198352
160.8030137350015
181.6521239782979
210.26249115962474
247.7892009471116
219.29228881087974
192.16200887203323
171.88106514176528
157.5850515247882
148.11005124871076
142.22173582485723
138.78995301494382
136.91325035027728
135.94927362322787
135.48347938347428
135.2713748536992
135.18026525307624
135.14356426455308
135.1304502384351
135.1282713368822
135.13377422757353
135.15003116088224
135.1874285115885
135.26862300363828
135.4387068521478
135.7829339280844
136.45493396107275
137.71773796774158
139.9971870160312
143.9415277812372
150.47234824270194
160.80303896941874
176.39664558655602
198.8419902053175
229.6485075827412
269.9905846949348
227.63084438330995
202.7200336528177
184.4722011619902
171.88104342252302
163.7604559544752
158.8541045217528
156.07665823623137
154.6025147452761
153.8680088397961
153.52381878089525
153.37183430465518
153.30856149239912
153.283997862229
153.27594293958722
153.2759345804147
153.28274537167314
153.30067079867052
153.3414304022247
153.4300015719778
153.61604141602285
153.9936624691957
154.73290719211386
156.12549606239776
158.64410217873714
163.0075239670408
170.2337279675848
181.65213951562075
198.84199218302848
223.4734237742405
257.0609497541493
300.68392062330383
240.55867455999015
218.5700773784506
202.72001342042748
192.16199714524885
185.56145364914806
181.69591493493968
179.57565846722395
178.48559055583965
177.95947846786908
177.72061218224593
177.61839257934722
177.57720380089233
177.5619411936249
177.55777350037565
177.55974957519916
177.56852572465382
177.59002062256434
177.63842522312365
177.74339529915093
177.9635650812506
178.40959677512555
179.2803668161428
180.91457866574413
183.85564623946993
188.91903986626372
197.23927229020725
210.26249992353243
229.64851437673718
257.06094347796466
293.856481354406
340.8932705835691
259.6989260862573
240.55864706444316
227.63083101406147
219.29229094105693
214.2468685693811
211.38821138638525
209.871502263008
209.11710212436637
208.76467477055832
208.6097014170302
208.54546590405673
208.52052163039642
208.51200644719137
208.51095826356286
208.51537370540242
208.52799536782965
208.55743608130004
208.62270651254093
208.76257209667156
209.05235586749038
209.6316881190947
210.74655285273482
212.80652898880822
216.45203598503986
222.61594612030495
232.55144125490588
247.78920024731917
269.9905759442201
300.6838973172625
340.89325265870093
389.9870122773724
