# vtk DataFile Version 2.0
Unstructured Grid Example
ASCII
DATASET UNSTRUCTURED_GRID

POINTS 961 float
0.150000006 -0.00839745998 0
0.146666661 -0.00839745998 0
0.143333331 -0.00839745998 0
0.140000001 -0.00839745998 0
0.13666667 -0.00839745998 0
0.13333334 -0.00839745998 0
0.129999995 -0.00839745998 0
0.126666665 -0.00839745998 0
0.123333335 -0.00839745998 0
0.119999997 -0.00839745998 0
0.116666667 -0.00839745998 0
0.113333337 -0.00839745998 0
0.109999999 -0.00839745998 0
0.106666669 -0.00839745998 0
0.103333332 -0.00839745998 0
0.100000001 -0.00839745998 0
0.0966666639 -0.00839745998 0
0.0933333337 -0.00839745998 0
0.0900000036 -0.00839745998 0
0.086666666 -0.00839745998 0
0.0833333358 -0.00839745998 0
0.0799999982 -0.00839745998 0
0.0766666681 -0.00839745998 0
0.0733333305 -0.00839745998 0
0.0700000003 -0.00839745998 0
0.0666666701 -0.00839745998 0
0.0633333325 -0.00839745998 0
0.0599999987 -0.00839745998 0
0.0566666685 -0.00839745998 0
0.0533333346 -0.00839745998 0
0.0500000007 -0.00839745998 0
0.148333326 -0.0112842107 0
0.144999996 -0.0112842107 0
0.141666666 -0.0112842107 0
0.138333336 -0.0112842107 0
0.135000005 -0.0112842107 0
0.13166666 -0.0112842107 0
0.12833333 -0.0112842107 0
0.125 -0.0112842107 0
0.12166667 -0.0112842107 0
0.118333332 -0.0112842107 0
0.115000002 -0.0112842107 0
0.111666664 -0.0112842107 0
0.108333334 -0.0112842107 0
0.104999997 -0.0112842107 0
0.101666667 -0.0112842107 0
0.0983333364 -0.0112842107 0
0.0949999988 -0.0112842107 0
0.0916666687 -0.0112842107 0
0.088333331 -0.0112842107 0
0.0850000009 -0.0112842107 0
0.0816666633 -0.0112842107 0
0.0783333331 -0.0112842107 0
0.075000003 -0.0112842107 0
0.0716666654 -0.0112842107 0
0.0683333352 -0.0112842107 0
0.0649999976 -0.0112842107 0
0.0616666675 -0.0112842107 0
0.0583333336 -0.0112842107 0
0.0549999997 -0.0112842107 0
0.0516666658 -0.0112842107 0
0.0483333319 -0.0112842107 0
0.146666661 -0.0141709624 0
0.143333331 -0.0141709624 0
0.140000001 -0.0141709624 0
0.13666667 -0.0141709624 0
0.13333334 -0.0141709624 0
0.129999995 -0.0141709624 0
0.126666665 -0.0141709624 0
0.123333335 -0.0141709624 0
0.119999997 -0.0141709624 0
0.116666667 -0.0141709624 0
0.113333337 -0.0141709624 0
0.109999999 -0.0141709624 0
0.106666669 -0.0141709624 0
0.103333332 -0.0141709624 0
0.100000001 -0.0141709624 0
0.0966666639 -0.0141709624 0
0.0933333337 -0.0141709624 0
0.0900000036 -0.0141709624 0
0.086666666 -0.0141709624 0
0.0833333358 -0.0141709624 0
0.0799999982 -0.0141709624 0
0.0766666681 -0.0141709624 0
0.0733333305 -0.0141709624 0
0.0700000003 -0.0141709624 0
0.0666666701 -0.0141709624 0
0.0633333325 -0.0141709624 0
0.0599999987 -0.0141709624 0
0.0566666685 -0.0141709624 0
0.0533333346 -0.0141709624 0
0.0500000007 -0.0141709624 0
0.0466666669 -0.0141709624 0
0.144999996 -0.0170577131 0
0.141666666 -0.0170577131 0
0.138333336 -0.0170577131 0
0.135000005 -0.0170577131 0
0.13166666 -0.0170577131 0
0.12833333 -0.0170577131 0
0.125 -0.0170577131 0
0.12166667 -0.0170577131 0
0.118333332 -0.0170577131 0
0.115000002 -0.0170577131 0
0.111666664 -0.0170577131 0
0.108333334 -0.0170577131 0
0.104999997 -0.0170577131 0
0.101666667 -0.0170577131 0
0.0983333364 -0.0170577131 0
0.0949999988 -0.0170577131 0
0.0916666687 -0.0170577131 0
0.088333331 -0.0170577131 0
0.0850000009 -0.0170577131 0
0.0816666633 -0.0170577131 0
0.0783333331 -0.0170577131 0
0.075000003 -0.0170577131 0
0.0716666654 -0.0170577131 0
0.0683333352 -0.0170577131 0
0.0649999976 -0.0170577131 0
0.0616666675 -0.0170577131 0
0.0583333336 -0.0170577131 0
0.0549999997 -0.0170577131 0
0.0516666658 -0.0170577131 0
0.0483333319 -0.0170577131 0
0.0450000018 -0.0170577131 0
0.143333331 -0.0199444648 0
0.140000001 -0.0199444648 0
0.13666667 -0.0199444648 0
0.13333334 -0.0199444648 0
0.129999995 -0.0199444648 0
0.126666665 -0.0199444648 0
0.123333335 -0.0199444648 0
0.119999997 -0.0199444648 0
0.116666667 -0.0199444648 0
0.113333337 -0.0199444648 0
0.109999999 -0.0199444648 0
0.106666669 -0.0199444648 0
0.103333332 -0.0199444648 0
0.100000001 -0.0199444648 0
0.0966666639 -0.0199444648 0
0.0933333337 -0.0199444648 0
0.0900000036 -0.0199444648 0
0.086666666 -0.0199444648 0
0.0833333358 -0.0199444648 0
0.0799999982 -0.0199444648 0
0.0766666681 -0.0199444648 0
0.0733333305 -0.0199444648 0
0.0700000003 -0.0199444648 0
0.0666666701 -0.0199444648 0
0.0633333325 -0.0199444648 0
0.0599999987 -0.0199444648 0
0.0566666685 -0.0199444648 0
0.0533333346 -0.0199444648 0
0.0500000007 -0.0199444648 0
0.0466666669 -0.0199444648 0
0.043333333 -0.0199444648 0
0.141666666 -0.0228312165 0
0.138333336 -0.0228312165 0
0.135000005 -0.0228312165 0
0.13166666 -0.0228312165 0
0.12833333 -0.0228312165 0
0.125 -0.0228312165 0
0.12166667 -0.0228312165 0
0.118333332 -0.0228312165 0
0.115000002 -0.0228312165 0
0.111666664 -0.0228312165 0
0.108333334 -0.0228312165 0
0.104999997 -0.0228312165 0
0.101666667 -0.0228312165 0
0.0983333364 -0.0228312165 0
0.0949999988 -0.0228312165 0
0.0916666687 -0.0228312165 0
0.088333331 -0.0228312165 0
0.0850000009 -0.0228312165 0
0.0816666633 -0.0228312165 0
0.0783333331 -0.0228312165 0
0.075000003 -0.0228312165 0
0.0716666654 -0.0228312165 0
0.0683333352 -0.0228312165 0
0.0649999976 -0.0228312165 0
0.0616666675 -0.0228312165 0
0.0583333336 -0.0228312165 0
0.0549999997 -0.0228312165 0
0.0516666658 -0.0228312165 0
0.0483333319 -0.0228312165 0
0.0450000018 -0.0228312165 0
0.0416666679 -0.0228312165 0
0.140000001 -0.0257179681 0
0.13666667 -0.0257179681 0
0.13333334 -0.0257179681 0
0.129999995 -0.0257179681 0
0.126666665 -0.0257179681 0
0.123333335 -0.0257179681 0
0.119999997 -0.0257179681 0
0.116666667 -0.0257179681 0
0.113333337 -0.0257179681 0
0.109999999 -0.0257179681 0
0.106666669 -0.0257179681 0
0.103333332 -0.0257179681 0
0.100000001 -0.0257179681 0
0.0966666639 -0.0257179681 0
0.0933333337 -0.0257179681 0
0.0900000036 -0.0257179681 0
0.086666666 -0.0257179681 0
0.0833333358 -0.0257179681 0
0.0799999982 -0.0257179681 0
0.0766666681 -0.0257179681 0
0.0733333305 -0.0257179681 0
0.0700000003 -0.0257179681 0
0.0666666701 -0.0257179681 0
0.0633333325 -0.0257179681 0
0.0599999987 -0.0257179681 0
0.0566666685 -0.0257179681 0
0.0533333346 -0.0257179681 0
0.0500000007 -0.0257179681 0
0.0466666669 -0.0257179681 0
0.043333333 -0.0257179681 0
0.0399999991 -0.0257179681 0
0.138333336 -0.0286047198 0
0.135000005 -0.0286047198 0
0.13166666 -0.0286047198 0
0.12833333 -0.0286047198 0
0.125 -0.0286047198 0
0.12166667 -0.0286047198 0
0.118333332 -0.0286047198 0
0.115000002 -0.0286047198 0
0.111666664 -0.0286047198 0
0.108333334 -0.0286047198 0
0.104999997 -0.0286047198 0
0.101666667 -0.0286047198 0
0.0983333364 -0.0286047198 0
0.0949999988 -0.0286047198 0
0.0916666687 -0.0286047198 0
0.088333331 -0.0286047198 0
0.0850000009 -0.0286047198 0
0.0816666633 -0.0286047198 0
0.0783333331 -0.0286047198 0
0.075000003 -0.0286047198 0
0.0716666654 -0.0286047198 0
0.0683333352 -0.0286047198 0
0.0649999976 -0.0286047198 0
0.0616666675 -0.0286047198 0
0.0583333336 -0.0286047198 0
0.0549999997 -0.0286047198 0
0.0516666658 -0.0286047198 0
0.0483333319 -0.0286047198 0
0.0450000018 -0.0286047198 0
0.0416666679 -0.0286047198 0
0.038333334 -0.0286047198 0
0.13666667 -0.0314914696 0
0.13333334 -0.0314914696 0
0.129999995 -0.0314914696 0
0.126666665 -0.0314914696 0
0.123333335 -0.0314914696 0
0.119999997 -0.0314914696 0
0.116666667 -0.0314914696 0
0.113333337 -0.0314914696 0
0.109999999 -0.0314914696 0
0.106666669 -0.0314914696 0
0.103333332 -0.0314914696 0
0.100000001 -0.0314914696 0
0.0966666639 -0.0314914696 0
0.0933333337 -0.0314914696 0
0.0900000036 -0.0314914696 0
0.086666666 -0.0314914696 0
0.0833333358 -0.0314914696 0
0.0799999982 -0.0314914696 0
0.0766666681 -0.0314914696 0
0.0733333305 -0.0314914696 0
0.0700000003 -0.0314914696 0
0.0666666701 -0.0314914696 0
0.0633333325 -0.0314914696 0
0.0599999987 -0.0314914696 0
0.0566666685 -0.0314914696 0
0.0533333346 -0.0314914696 0
0.0500000007 -0.0314914696 0
0.0466666669 -0.0314914696 0
0.043333333 -0.0314914696 0
0.0399999991 -0.0314914696 0
0.0366666652 -0.0314914696 0
0.135000005 -0.0343782231 0
0.13166666 -0.0343782231 0
0.12833333 -0.0343782231 0
0.125 -0.0343782231 0
0.12166667 -0.0343782231 0
0.118333332 -0.0343782231 0
0.115000002 -0.0343782231 0
0.111666664 -0.0343782231 0
0.108333334 -0.0343782231 0
0.104999997 -0.0343782231 0
0.101666667 -0.0343782231 0
0.0983333364 -0.0343782231 0
0.0949999988 -0.0343782231 0
0.0916666687 -0.0343782231 0
0.088333331 -0.0343782231 0
0.0850000009 -0.0343782231 0
0.0816666633 -0.0343782231 0
0.0783333331 -0.0343782231 0
0.075000003 -0.0343782231 0
0.0716666654 -0.0343782231 0
0.0683333352 -0.0343782231 0
0.0649999976 -0.0343782231 0
0.0616666675 -0.0343782231 0
0.0583333336 -0.0343782231 0
0.0549999997 -0.0343782231 0
0.0516666658 -0.0343782231 0
0.0483333319 -0.0343782231 0
0.0450000018 -0.0343782231 0
0.0416666679 -0.0343782231 0
0.038333334 -0.0343782231 0
0.0350000001 -0.0343782231 0
0.13333334 -0.0372649729 0
0.129999995 -0.0372649729 0
0.126666665 -0.0372649729 0
0.123333335 -0.0372649729 0
0.119999997 -0.0372649729 0
0.116666667 -0.0372649729 0
0.113333337 -0.0372649729 0
0.109999999 -0.0372649729 0
0.106666669 -0.0372649729 0
0.103333332 -0.0372649729 0
0.100000001 -0.0372649729 0
0.0966666639 -0.0372649729 0
0.0933333337 -0.0372649729 0
0.0900000036 -0.0372649729 0
0.086666666 -0.0372649729 0
0.0833333358 -0.0372649729 0
0.0799999982 -0.0372649729 0
0.0766666681 -0.0372649729 0
0.0733333305 -0.0372649729 0
0.0700000003 -0.0372649729 0
0.0666666701 -0.0372649729 0
0.0633333325 -0.0372649729 0
0.0599999987 -0.0372649729 0
0.0566666685 -0.0372649729 0
0.0533333346 -0.0372649729 0
0.0500000007 -0.0372649729 0
0.0466666669 -0.0372649729 0
0.043333333 -0.0372649729 0
0.0399999991 -0.0372649729 0
0.0366666652 -0.0372649729 0
0.0333333351 -0.0372649729 0
0.13166666 -0.0401517227 0
0.12833333 -0.0401517227 0
0.125 -0.0401517227 0
0.12166667 -0.0401517227 0
0.118333332 -0.0401517227 0
0.115000002 -0.0401517227 0
0.111666664 -0.0401517227 0
[...]
POINT_DATA 961
SCALARS Temp float 1
LOOKUP_TABLE default
533.4767106743532
490.28887082939485
451.07404482645603
416.4968793184566
386.64208605750457
361.3890550604514
340.4620713668044
323.47299616960476
309.961856951952
299.43591998765174
291.4032917045974
285.3993988651899
281.0059102072653
277.86211282957356
275.66984437009563
274.1938701336397
273.2593135054928
272.74804835922663
272.5954198736071
272.7883296217193
273.3651281663217
274.4171919403852
276.0914658060567
278.5928208262403
282.18458592770895
287.1858020083465
293.96380779029056
302.92187777109126
314.4839628753076
329.08462257426726
347.32359297299905
490.2888830433669
447.31882869530335
409.1030170918059
375.7517740686408
347.2318425909347
323.334418255397
303.71505315085165
287.934245184179
275.498718012296
265.8985906702564
258.63861811947277
253.2615635528119
249.36396813921291
246.6044930350382
244.7067029544058
243.4578159249478
242.7054608335993
242.35403683042156
242.36195156602813
242.74054020378
243.55482759810278
244.92571633556926
247.03265495254533
250.11531405774
254.47261019187164
260.457602554577
268.4670250164944
278.92585271729354
292.2684196346202
308.9246167384325
329.08464218216113
451.0739978192778
409.10299293359725
372.0844654283953
340.0550338088819
312.8836880752873
290.2894859761037
271.8756347305524
257.1685813592653
245.65748548007392
236.82888849504997
230.19453691038967
225.3117281979095
221.79598723995582
219.32705680241799
217.6500632316373
216.5734221200187
215.9654689372639
215.75121160749373
215.91034342322368
216.47702087676
217.54134232798188
219.25184374919607
221.8178442283917
225.5099646011751
230.65722319895735
237.63906824128878
246.871400041923
258.7863307283181
273.8041673299325
292.26841084700317
314.4839749468239
416.49681524140976
375.7517351219088
340.0550306435159
309.37039521112484
283.4989176521035
262.1079011403234
244.7660036508329
230.98203065007866
220.24128341980258
212.03715599933804
205.89563305480817
201.3926906879783
198.16439104617857
195.91133230517727
194.3987477156987
193.45422683350347
192.96462223300674
192.87347210729664
193.1798453642608
193.93887747207376
195.26370244836247
197.32792104267565
200.36718548541194
204.67820528656497
210.61353135305816
218.5704465611045
228.97327856475982
242.24794058083182
258.7863483561276
278.9258659371012
302.9218693473585
386.64201836393465
347.23180041764965
312.8836612190397
283.4990134320521
258.82959985542203
238.50939239534785
222.08951696601827
209.07489773847374
198.9576774195893
191.24525397269645
185.48202483803982
181.26417153259325
178.2480054179838
176.1533943272182
174.7635016764052
173.92271378404874
173.53409533015562
173.55760023562198
174.009671642587
174.96434071138162
176.55532764063713
178.97812389948876
182.49048475640262
187.4097191180547
194.10497974167438
202.98324240173386
214.46835417926258
228.97327073017476
246.8713943335164
268.46702446928526
293.9638126561842
361.3889798739722
323.33446945992387
290.28955269811695
262.10786283376945
238.50937630244488
219.11079045451245
203.45974051534523
191.06796126728935
181.4416291260847
174.10635757946733
168.62653043402418
164.61810064235175
161.7560350885765
159.77715215590445
158.48004117111535
157.72343775087333
157.42437356441158
157.55713319246166
158.15346138803883
159.3039819669024
161.16020315516562
163.93591719825363
167.90644115424232
173.4040872222913
180.80813575759652
190.5285789045549
202.98323754593355
218.57044822961475
237.63907455788058
260.4575796037765
287.1857998711696
340.4620881363102
303.7150854314084
271.87569372942625
244.76595665013417
222.08949446719126
203.45973273248094
188.43125587636828
176.52996724090022
167.28011835022784
160.227126610802
154.954910558565
151.09756523630313
148.3463104043103
146.4523342991727
145.22712382553888
144.54142653784197
144.32412561171859
144.56180986235552
145.2994037305186
146.64167912694873
148.75492306218553
151.8674822200041
156.2677450493241
162.29786877243245
170.3419531203336
180.80813012984683
194.10496850199874
210.613515508124
230.65722478703185
254.47260943251555
282.1845936974152
323.4730141245776
287.93427631915944
257.168510405441
230.98198367503912
209.07490272930562
191.0679814458724
176.52996105326073
165.00492499823594
156.0367919472905
149.19038152094018
144.06736175666447
140.31760730252395
137.64591027400718
135.81525263291024
134.64764514957596
134.02373295426324
133.882296733603
134.22028314765032
135.09366837327883
136.61887606727439
138.9739403987308
142.39817199186206
147.18892464369554
153.69385565921385
162.29786468384424
173.40408077491207
187.40972347482614
204.67820746152898
225.5099487250615
250.11529393385277
278.5928092385961
309.9618655475448
275.4987537051637
245.65744397963078
220.2412670247582
198.95768340661678
181.44161061557023
167.280111115631
156.0368115354766
147.2748979641026
140.57679368140433
135.5595343379424
131.88604101284065
129.27208060210208
127.49004970922414
126.37036211816105
125.80168620046474
125.73091749262494
126.16352293630311
127.16446974880063
128.8594065466733
131.43524967219966
135.1390455484506
140.27364761481005
147.18892876764386
156.26774873637166
167.90644224941815
182.4904835932952
200.36718070309837
221.81784707930495
247.03266417240468
276.0914852400791
299.4359670077018
265.8985258642387
236.828860804774
212.03714796575701
191.2452653994534
174.1063567157341
160.2271370096085
149.19037446326476
140.5767882841233
133.98384463324788
129.04129357265433
125.42242027155477
122.8515851343899
121.10850191625818
120.03018331021353
119.51168556428755
119.50641557765191
120.02666081945533
121.14445308800519
122.99243182624436
125.76388331376991
129.71087088581928
135.13904220299978
142.3981719853375
151.86748102975736
163.93591483971312
178.97812085040806
197.32790097922336
219.25182824808425
244.92569908513323
274.4171839256339
291.4033625729446
258.63856575064773
230.19451741923064
205.89564373816847
185.4820090930796
168.6265311369663
154.95492235765698
144.06736407294758
135.5595401882792
129.04129264727914
124.15235880139895
120.57400901454864
118.03712756144819
116.32696093268599
115.28560336500225
114.81308878465707
114.86793222586755
115.46771877857441
116.68982702597533
118.67194531009918
121.61164698546649
125.76388966560695
131.43525082009936
138.97393734812212
148.75491823207204
161.16020278435352
176.55532510204392
195.26370013286962
217.54134791968596
243.55483530006586
273.36511590102697
285.3993381123626
253.26153267816738
225.31172683279416
201.39270562563297
181.2641568006461
164.6181103461824
151.09755703924276
140.31760974582232
131.88603155582223
125.42241949217136
120.57401567859472
117.02800956076078
114.52005790220475
112.83950085952164
111.83225550645255
111.40213989011893
111.51157600047311
112.18213542567315
113.49508986408803
115.59161333266636
118.6719507680777
122.99243537390369
128.85940471211643
136.61888442128958
146.64168823904626
159.30399335537714
174.96433421311832
193.93886999096154
216.47702339802956
242.74054312933208
272.788343440638
281.00587712075986
249.3639571966593
221.7960020154228
198.16437277961853
178.2480077067571
161.7560535560026
148.34630742417846
137.64591729209516
129.272077228001
122.85158940665583
118.037123958425
114.52005546392986
112.03936472432754
110.38732528177945
109.41264459201004
109.0219649741202
109.1806206774769
109.91310688220274
111.30343524753717
113.49508405687486
116.68982533733036
121.14445819719865
127.16446326556486
135.09366621812853
145.299400567792
158.1534574045874
174.00966972901438
193.17984368205427
215.91035093551537
242.36192870807335
272.59542417263157
277.8620835713699
246.60449054966566
219.3270814873962
195.9113161425002
176.15339972275422
159.77713726423437
146.4523367232483
135.81524549889974
127.49004719224556
121.10850777777233
116.32695693598987
112.83950174663671
110.38732465759313
108.76470982928771
107.82233511033397
107.46892268203953
107.67195023190948
108.45803479121427
109.91310589467273
112.1821371993077
115.46771883912274
120.02666409363388
126.16352239458408
134.22028867339174
144.56181835157054
157.55712812284833
173.55759453553944
192.87346606669166
215.75121359881973
242.3540405172946
272.7480471616976
275.66983973286096
244.7067198592899
217.6500451094001
194.39874670925798
174.76352357737252
158.48003870164797
145.22713532296535
134.6476434295982
126.37036157493318
120.03018209916411
115.28560371613652
111.83225725274447
109.41264378018487
107.82233632569273
106.91340646880673
106.59611339982251
106.83955882911543
107.6719494617421
109.18061898300792
111.51157423215497
114.86793243087418
119.50641357713192
125.73091111149937
133.88229504503636
144.32412314064308
157.42437211872246
173.5340941518995
192.96462194649692
215.96545082631025
242.70545737167316
273.2593055300143
274.1938691422088
243.45783718086787
216.5734090553879
193.4542319272659
173.92269643142382
157.72343808688464
144.5414152757132
134.02373451129407
125.801690002945
119.51168493452246
114.81308991392015
111.40213606357025
109.02196561955165
107.46892123722235
106.59611347358528
106.3150262324605
106.59611393665605
107.46892187478099
109.02196720991037
111.40213784550224
114.8130880709127
119.51168885180017
125.80168652971336
134.02373977450907
144.541421478151
157.72343292806357
173.92270962044822
193.45422208382905
216.57342716605774
243.45780467501504
274.1938712429229
273.2593360378467
242.70543737925658
215.9654765990628
192.96464575751438
173.53409110754575
157.42438744040481
144.3241242060542
133.88230337654866
125.73091133179328
119.50641935206924
114.8679373452119
111.51157454337702
109.18062365025393
107.67195009269149
106.83955933772346
106.59611428682194
106.91340721431658
107.82233446780155
109.41264475932498
111.83225477894713
115.28560048716695
120.03018293026
126.37035596197784
134.6476433634179
145.22712344004535
158.48004176019015
174.76350367022712
194.39872443486976
217.65006061703076
244.70668621060474
275.6698382706087
272.74807971424747
242.3540197583773
215.7512244852063
192.87344967639953
173.55760010227579
157.55711993397202
144.5618114227157
134.22029279039364
126.16351719294386
120.02666643211556
115.46771636102986
112.18213499159613
109.91310485242333
108.45803396193477
107.67195100547123
107.4689228397919
107.82233539680207
108.7647108926762
110.38732584623102
112.83950032145816
116.32695977351298
121.10850490614399
127.49005108044925
135.815250044757
146.4523320487423
159.77714745508928
176.15339024419032
195.91132971158046
219.32704862592834
246.60448632932687
277.8621131481596
272.59538747452126
242.36194143257356
215.91036255980782
193.1798262052616
174.00967631060638
158.15344904295776
145.2994031259944
135.09366021929915
127.16446576383942
121.14446071893335
116.68982266712797
113.49508813187873
111.3034341488221
109.91310604194518
109.18062055447221
109.02196497407883
109.41264356070188
110.38732620168155
112.03936357305346
114.520054256961
118.03712632365828
122.85158766151943
129.2720807265145
137.64591250962133
148.3463160645507
161.75604452974227
178.24799796981395
198.16439643114518
221.795983776138
249.36396712848958
281.0059207243513
272.78832304821185
242.7405546969091
216.47700316644116
193.938875663395
174.96432377355174
159.30398459446573
146.6416930878061
136.6188778386459
128.8594076622867
122.99243215141693
118.6719478971958
115.5916118548085
113.49508862434202
112.18213699040969
111.51157592141932
111.40213988612868
111.83225614519927
112.83950157133948
114.52005683770396
117.02801155436372
120.57401337493963
125.42242233616686
131.8860348247174
140.31760569442966
151.09756487421225
164.61810178234396
181.26416753336676
201.39267595599767
225.311722176873
253.26155904652288
285.3993949878491
273.36512646510886
243.55484609001334
217.54132635935903
195.2637069838395
176.55531476861177
161.16020573318164
148.7549107884687
138.97394047878456
131.43525403640237
125.76388627774598
121.61165241574038
118.67194388120782
116.68982587353516
115.46771838242684
114.86793189032672
114.81308848760101
115.28560395463984
116.32696009529757
118.0371267114717
120.57401066357103
124.15235736937143
129.041295183737
135.55953620923208
144.06737078026657
154.95491457260837
168.6265228182428
185.48202922710976
205.8956286391797
230.19452941257006
258.63861344280906
291.4032850039156
274.4171921128073
244.9256735165822
219.2518338147715
197.3278884309839
178.97811042537248
163.93592062363868
151.86747317868617
142.39817572082717
135.1390382991644
129.71086739931306
125.7638814250238
122.99243017637593
121.1444554731736
120.02666058935603
119.50641535782194
119.51168588683811
120.03018366362083
121.10850117301037
122.85158651276615
125.42241849550975
129.04129568447308
133.98384698177261
140.5767849566416
149.19038061822621
160.22712983234558
174.10636594624046
191.24524066587566
212.0371467003417
236.82889164593854
265.89859894803266
299.43593276085187
276.09151496920896
247.0326597502549
221.8178736344584
200.36718611476542
182.49050297420848
167.90644797235595
156.26776592520278
147.18894511060006
140.27365507590747
135.13906331987454
131.4352583821558
128.85941515057442
127.16447884711481
126.16353177714555
125.73092708377885
125.80169560875575
126.3703703092014
127.49005762785582
129.272089775436
131.88604736776995
135.559542987257
140.57679643008265
147.2749081059103
156.03680868935697
167.28010660384226
181.4416287060569
198.9576704829177
220.24127798979995
245.65748926486222
275.4986832504705
309.9618361062746
278.5928051655647
250.11532296505916
225.50995521573398
204.67821466531694
187.4097478564364
173.4040882331152
162.29788463274244
153.6938656849736
147.18893446054827
142.39818302710478
138.97395124137884
136.61889181257254
135.0936803823403
134.2202948852355
133.88230873854556
134.02374474334488
134.64765612940806
135.8152647110462
137.64591967351802
140.31761910872638
144.0673729518396
149.1903875129951
156.03680442651978
165.00492539045854
176.52997374782882
191.06796374682645
209.07490407261005
230.98201250086393
257.16857518044645
287.93423732245316
323.4729994936424
282.18458252127175
254.47263022025305
230.6572228564516
210.61353027318177
194.1049686120343
180.8081441694771
170.3419668417523
162.29787263079007
156.26776147053477
151.86748827818857
148.75492918954967
146.64168592288863
145.29941032820125
144.56181812422454
144.3241331964896
144.54143340323986
145.22713070374937
146.45234208417367
148.34631629570356
151.09757309263912
154.9549141656608
160.22713637734583
167.28011793567373
176.5299659896963
188.43127397116425
203.45972459159532
222.08950740995675
244.76599960270943
271.8756285265425
303.71505427777066
340.46209094733933
287.18580867531443
260.45756532258224
237.63906267967053
218.57045673197334
202.98322853254055
190.52858480095972
180.80813121544665
173.4040830850101
167.90643876442323
163.93591494094107
161.16020708821748
159.3039816939225
158.1534609699738
157.55713316309811
157.42437349327074
157.72343752088673
158.48004183452068
159.77715118223708
161.75603633193373
164.6181017409851
168.62652806487208
174.1063610281415
181.44162330930595
191.0679663621464
203.45972008195062
219.1107867300017
238.5093964513143
262.1079135033414
290.2895044361659
323.3344354370002
361.3889787175002
293.96380814471627
268.4669979691076
246.8713871513384
228.97324845623305
214.46834776968154
202.98323611421654
194.10496290717083
187.40971660741454
182.4904710005338
178.97811039904428
176.5553149625426
174.9643279024125
174.0096612044395
173.55758881423625
173.53408355537223
173.92270227385075
174.76349088088188
176.15338234004696
178.24799523878846
181.26415840674247
185.48201702471425
191.245238164568
198.95766140943945
209.07489829964516
222.0894945830515
238.50938778731415
258.8296201423728
283.49893111600693
312.88360320920356
347.2317633271328
386.64200702271347
302.9218848901688
278.92588393618826
258.7863877821048
242.24796085978983
228.97331397985735
218.57047024324459
210.61355510350992
204.67823049380954
200.36721060989578
197.32795288533256
195.2637295445621
193.9389042713071
193.17987240378483
192.87349900187107
192.96464914471727
193.4542541595602
194.39877364827973
195.91135972227255
198.16441783342006
201.3927141779047
205.89566056870294
212.03717462828882
220.24130979970957
230.98203274965076
244.7660175429115
262.1079323449408
283.4989708210718
309.37034943402057
340.0549863951919
375.75170525834324
416.4968195508788
314.48398719417725
292.26844438619133
273.80418402272477
258.7863627778134
246.871431444008
237.63908809757555
230.65725767168902
225.5099871229697
221.81786684041842
219.25186701460072
217.5413652719543
216.47704638987707
215.9103676416283
215.7512355046157
215.96549300868097
216.57344645552843
217.6500863481755
219.32708101018756
221.796008558636
225.31175321609808
230.19455412180926
236.82890431496023
245.65751391121776
257.16858691281436
271.8756527499042
290.289521682643
312.883623053394
340.05498174656543
372.08441944478875
409.10295685986137
451.0739924390033
329.08464549081407
308.9246393191354
292.26842160411
278.9258694950575
268.4670298798892
260.45760751796956
254.47261663306242
250.11532054337295
247.03266855489767
244.92572510699839
243.5548359949458
242.7405488905998
242.36196019517993
242.35404575882814
242.7054700798273
243.45782416331377
244.70671257611912
246.60450216212965
249.36397470163763
253.26157376031324
258.63862063740623
265.8986000384274
275.49870559266833
287.9342428212734
303.71506506694334
323.3344480800671
347.2317775255343
375.75170378360843
409.10294796336746
447.31876745596674
490.28879089607267
347.3236086503533
329.08461654808366
314.48397108058504
302.9218851342708
293.9638032483245
287.1858119828666
282.1845838912291
278.5928196367757
276.0914651641561
274.41719031887743
273.365129425522
272.7883294686017
272.5954198050013
272.7480483872439
273.25931376024306
274.193869545168
275.66984441242795
277.8621108891623
281.0059114962848
285.3993932717083
291.4032849921156
299.43592497387675
309.9618415830991
323.4729913536055
340.46208108529584
361.3889711512984
386.6420130032256
416.49680604956137
451.07396813147807
490.28877449888387
533.4763350088492
