# vtk DataFile Version 2.0
Unstructured Grid Example
ASCII
DATASET UNSTRUCTURED_GRID

POINTS 961 float
0.150000006 -0.00839745998 0
0.146666661 -0.00839745998 0
0.143333331 -0.00839745998 0
0.140000001 -0.00839745998 0
0.13666667 -0.00839745998 0
0.13333334 -0.00839745998 0
0.129999995 -0.00839745998 0
0.126666665 -0.00839745998 0
0.123333335 -0.00839745998 0
0.119999997 -0.00839745998 0
0.116666667 -0.00839745998 0
0.113333337 -0.00839745998 0
0.109999999 -0.00839745998 0
0.106666669 -0.00839745998 0
0.103333332 -0.00839745998 0
0.100000001 -0.00839745998 0
0.0966666639 -0.00839745998 0
0.0933333337 -0.00839745998 0
0.0900000036 -0.00839745998 0
0.086666666 -0.00839745998 0
0.0833333358 -0.00839745998 0
0.0799999982 -0.00839745998 0
0.0766666681 -0.00839745998 0
0.0733333305 -0.00839745998 0
0.0700000003 -0.00839745998 0
0.0666666701 -0.00839745998 0
0.0633333325 -0.00839745998 0
0.0599999987 -0.00839745998 0
0.0566666685 -0.00839745998 0
0.0533333346 -0.00839745998 0
0.0500000007 -0.00839745998 0
0.148333326 -0.0112842107 0
0.144999996 -0.0112842107 0
0.141666666 -0.0112842107 0
0.138333336 -0.0112842107 0
0.135000005 -0.0112842107 0
0.13166666 -0.0112842107 0
0.12833333 -0.0112842107 0
0.125 -0.0112842107 0
0.12166667 -0.0112842107 0
0.118333332 -0.0112842107 0
0.115000002 -0.0112842107 0
0.111666664 -0.0112842107 0
0.108333334 -0.0112842107 0
0.104999997 -0.0112842107 0
0.101666667 -0.0112842107 0
0.0983333364 -0.0112842107 0
0.0949999988 -0.0112842107 0
0.0916666687 -0.0112842107 0
0.088333331 -0.0112842107 0
0.0850000009 -0.0112842107 0
0.0816666633 -0.0112842107 0
0.0783333331 -0.0112842107 0
0.075000003 -0.0112842107 0
0.0716666654 -0.0112842107 0
0.0683333352 -0.0112842107 0
0.0649999976 -0.0112842107 0
0.0616666675 -0.0112842107 0
0.0583333336 -0.0112842107 0
0.0549999997 -0.0112842107 0
0.0516666658 -0.0112842107 0
0.0483333319 -0.0112842107 0
0.146666661 -0.0141709624 0
0.143333331 -0.0141709624 0
0.140000001 -0.0141709624 0
0.13666667 -0.0141709624 0
0.13333334 -0.0141709624 0
0.129999995 -0.0141709624 0
0.126666665 -0.0141709624 0
0.123333335 -0.0141709624 0
0.119999997 -0.0141709624 0
0.116666667 -0.0141709624 0
0.113333337 -0.0141709624 0
0.109999999 -0.0141709624 0
0.106666669 -0.0141709624 0
0.103333332 -0.0141709624 0
0.100000001 -0.0141709624 0
0.0966666639 -0.0141709624 0
0.0933333337 -0.0141709624 0
0.0900000036 -0.0141709624 0
0.086666666 -0.0141709624 0
0.0833333358 -0.0141709624 0
0.0799999982 -0.0141709624 0
0.0766666681 -0.0141709624 0
0.0733333305 -0.0141709624 0
0.0700000003 -0.0141709624 0
0.0666666701 -0.0141709624 0
0.0633333325 -0.0141709624 0
0.0599999987 -0.0141709624 0
0.0566666685 -0.0141709624 0
0.0533333346 -0.0141709624 0
0.0500000007 -0.0141709624 0
0.0466666669 -0.0141709624 0
0.144999996 -0.0170577131 0
0.141666666 -0.0170577131 0
0.138333336 -0.0170577131 0
0.135000005 -0.0170577131 0
0.13166666 -0.0170577131 0
0.12833333 -0.0170577131 0
0.125 -0.0170577131 0
0.12166667 -0.0170577131 0
0.118333332 -0.0170577131 0
0.115000002 -0.0170577131 0
0.111666664 -0.0170577131 0
0.108333334 -0.0170577131 0
0.104999997 -0.0170577131 0
0.101666667 -0.0170577131 0
0.0983333364 -0.0170577131 0
0.0949999988 -0.0170577131 0
0.0916666687 -0.0170577131 0
0.088333331 -0.0170577131 0
0.0850000009 -0.0170577131 0
0.0816666633 -0.0170577131 0
0.0783333331 -0.0170577131 0
0.075000003 -0.0170577131 0
0.0716666654 -0.0170577131 0
0.0683333352 -0.0170577131 0
0.0649999976 -0.0170577131 0
0.0616666675 -0.0170577131 0
0.0583333336 -0.0170577131 0
0.0549999997 -0.0170577131 0
0.0516666658 -0.0170577131 0
0.0483333319 -0.0170577131 0
0.0450000018 -0.0170577131 0
0.143333331 -0.0199444648 0
0.140000001 -0.0199444648 0
0.13666667 -0.0199444648 0
0.13333334 -0.0199444648 0
0.129999995 -0.0199444648 0
0.126666665 -0.0199444648 0
0.123333335 -0.0199444648 0
0.119999997 -0.0199444648 0
0.116666667 -0.0199444648 0
0.113333337 -0.0199444648 0
0.109999999 -0.0199444648 0
0.106666669 -0.0199444648 0
0.103333332 -0.0199444648 0
0.100000001 -0.0199444648 0
0.0966666639 -0.0199444648 0
0.0933333337 -0.0199444648 0
0.0900000036 -0.0199444648 0
0.086666666 -0.0199444648 0
0.0833333358 -0.0199444648 0
0.0799999982 -0.0199444648 0
0.0766666681 -0.0199444648 0
0.0733333305 -0.0199444648 0
0.0700000003 -0.0199444648 0
0.0666666701 -0.0199444648 0
0.0633333325 -0.0199444648 0
0.0599999987 -0.0199444648 0
0.0566666685 -0.0199444648 0
0.0533333346 -0.0199444648 0
0.0500000007 -0.0199444648 0
0.0466666669 -0.0199444648 0
0.043333333 -0.0199444648 0
0.141666666 -0.0228312165 0
0.138333336 -0.0228312165 0
0.135000005 -0.0228312165 0
0.13166666 -0.0228312165 0
0.12833333 -0.0228312165 0
0.125 -0.0228312165 0
0.12166667 -0.0228312165 0
0.118333332 -0.0228312165 0
0.115000002 -0.0228312165 0
0.111666664 -0.0228312165 0
0.108333334 -0.0228312165 0
0.104999997 -0.0228312165 0
0.101666667 -0.0228312165 0
0.0983333364 -0.0228312165 0
0.0949999988 -0.0228312165 0
0.0916666687 -0.0228312165 0
0.088333331 -0.0228312165 0
0.0850000009 -0.0228312165 0
0.0816666633 -0.0228312165 0
0.0783333331 -0.0228312165 0
0.075000003 -0.0228312165 0
0.0716666654 -0.0228312165 0
0.0683333352 -0.0228312165 0
0.0649999976 -0.0228312165 0
0.0616666675 -0.0228312165 0
0.0583333336 -0.0228312165 0
0.0549999997 -0.0228312165 0
0.0516666658 -0.0228312165 0
0.0483333319 -0.0228312165 0
0.0450000018 -0.0228312165 0
0.0416666679 -0.0228312165 0
0.140000001 -0.0257179681 0
0.13666667 -0.0257179681 0
0.13333334 -0.0257179681 0
0.129999995 -0.0257179681 0
0.126666665 -0.0257179681 0
0.123333335 -0.0257179681 0
0.119999997 -0.0257179681 0
0.116666667 -0.0257179681 0
0.113333337 -0.0257179681 0
0.109999999 -0.0257179681 0
0.106666669 -0.0257179681 0
0.103333332 -0.0257179681 0
0.100000001 -0.0257179681 0
0.0966666639 -0.0257179681 0
0.0933333337 -0.0257179681 0
0.0900000036 -0.0257179681 0
0.086666666 -0.0257179681 0
0.0833333358 -0.0257179681 0
0.0799999982 -0.0257179681 0
0.0766666681 -0.0257179681 0
0.0733333305 -0.0257179681 0
0.0700000003 -0.0257179681 0
0.0666666701 -0.0257179681 0
0.0633333325 -0.0257179681 0
0.0599999987 -0.0257179681 0
0.0566666685 -0.0257179681 0
0.0533333346 -0.0257179681 0
0.0500000007 -0.0257179681 0
0.0466666669 -0.0257179681 0
0.043333333 -0.0257179681 0
0.0399999991 -0.0257179681 0
0.138333336 -0.0286047198 0
0.135000005 -0.0286047198 0
0.13166666 -0.0286047198 0
0.12833333 -0.0286047198 0
0.125 -0.0286047198 0
0.12166667 -0.0286047198 0
0.118333332 -0.0286047198 0
0.115000002 -0.0286047198 0
0.111666664 -0.0286047198 0
0.108333334 -0.0286047198 0
0.104999997 -0.0286047198 0
0.101666667 -0.0286047198 0
0.0983333364 -0.0286047198 0
0.0949999988 -0.0286047198 0
0.0916666687 -0.0286047198 0
0.088333331 -0.0286047198 0
0.0850000009 -0.0286047198 0
0.0816666633 -0.0286047198 0
0.0783333331 -0.0286047198 0
0.075000003 -0.0286047198 0
0.0716666654 -0.0286047198 0
0.0683333352 -0.0286047198 0
0.0649999976 -0.0286047198 0
0.0616666675 -0.0286047198 0
0.0583333336 -0.0286047198 0
0.0549999997 -0.0286047198 0
0.0516666658 -0.0286047198 0
0.0483333319 -0.0286047198 0
0.0450000018 -0.0286047198 0
0.0416666679 -0.0286047198 0
0.038333334 -0.0286047198 0
0.13666667 -0.0314914696 0
0.13333334 -0.0314914696 0
0.129999995 -0.0314914696 0
0.126666665 -0.0314914696 0
0.123333335 -0.0314914696 0
0.119999997 -0.0314914696 0
0.116666667 -0.0314914696 0
0.113333337 -0.0314914696 0
0.109999999 -0.0314914696 0
0.106666669 -0.0314914696 0
0.103333332 -0.0314914696 0
0.100000001 -0.0314914696 0
0.0966666639 -0.0314914696 0
0.0933333337 -0.0314914696 0
0.0900000036 -0.0314914696 0
0.086666666 -0.0314914696 0
0.0833333358 -0.0314914696 0
0.0799999982 -0.0314914696 0
0.0766666681 -0.0314914696 0
0.0733333305 -0.0314914696 0
0.0700000003 -0.0314914696 0
0.0666666701 -0.0314914696 0
0.0633333325 -0.0314914696 0
0.0599999987 -0.0314914696 0
0.0566666685 -0.0314914696 0
0.0533333346 -0.0314914696 0
0.0500000007 -0.0314914696 0
0.0466666669 -0.0314914696 0
0.043333333 -0.0314914696 0
0.0399999991 -0.0314914696 0
0.0366666652 -0.0314914696 0
0.135000005 -0.0343782231 0
0.13166666 -0.0343782231 0
0.12833333 -0.0343782231 0
0.125 -0.0343782231 0
0.12166667 -0.0343782231 0
0.118333332 -0.0343782231 0
0.115000002 -0.0343782231 0
0.111666664 -0.0343782231 0
0.108333334 -0.0343782231 0
0.104999997 -0.0343782231 0
0.101666667 -0.0343782231 0
0.0983333364 -0.0343782231 0
0.0949999988 -0.0343782231 0
0.0916666687 -0.0343782231 0
0.088333331 -0.0343782231 0
0.0850000009 -0.0343782231 0
0.0816666633 -0.0343782231 0
0.0783333331 -0.0343782231 0
0.075000003 -0.0343782231 0
0.0716666654 -0.0343782231 0
0.0683333352 -0.0343782231 0
0.0649999976 -0.0343782231 0
0.0616666675 -0.0343782231 0
0.0583333336 -0.0343782231 0
0.0549999997 -0.0343782231 0
0.0516666658 -0.0343782231 0
0.0483333319 -0.0343782231 0
0.0450000018 -0.0343782231 0
0.0416666679 -0.0343782231 0
0.038333334 -0.0343782231 0
0.0350000001 -0.0343782231 0
0.13333334 -0.0372649729 0
0.129999995 -0.0372649729 0
0.126666665 -0.0372649729 0
0.123333335 -0.0372649729 0
0.119999997 -0.0372649729 0
0.116666667 -0.0372649729 0
0.113333337 -0.0372649729 0
0.109999999 -0.0372649729 0
0.106666669 -0.0372649729 0
0.103333332 -0.0372649729 0
0.100000001 -0.0372649729 0
0.0966666639 -0.0372649729 0
0.0933333337 -0.0372649729 0
0.0900000036 -0.0372649729 0
0.086666666 -0.0372649729 0
0.0833333358 -0.0372649729 0
0.0799999982 -0.0372649729 0
0.0766666681 -0.0372649729 0
0.0733333305 -0.0372649729 0
0.0700000003 -0.0372649729 0
0.0666666701 -0.0372649729 0
0.0633333325 -0.0372649729 0
0.0599999987 -0.0372649729 0
0.0566666685 -0.0372649729 0
0.0533333346 -0.0372649729 0
0.0500000007 -0.0372649729 0
0.0466666669 -0.0372649729 0
0.043333333 -0.0372649729 0
0.0399999991 -0.0372649729 0
0.0366666652 -0.0372649729 0
0.0333333351 -0.0372649729 0
0.13166666 -0.0401517227 0
0.12833333 -0.0401517227 0
0.125 -0.0401517227 0
0.12166667 -0.0401517227 0
0.118333332 -0.0401517227 0
0.115000002 -0.0401517227 0
0.111666664 -0.0401517227 0
[...]
POINT_DATA 961
SCALARS Temp float 1
LOOKUP_TABLE default
564.7685145719365
523.2431963692508
485.04216455364815
450.7630097386473
420.5389616997169
394.34379425391285
372.0256778904419
353.33451483827315
337.9482293827635
325.49998763173505
315.60338068249825
307.8743361792889
301.9492302514248
297.4984994076174
294.2358659639148
291.9240997738306
290.37785196384647
289.46473860693953
289.1054059356021
289.27330453426583
289.99448430444914
291.3474171183325
293.46248478326004
296.52058491167816
300.74999322806775
306.4209730891379
313.8375964796505
323.3271354998619
335.22916225593383
349.89138956393157
367.8137010052664
523.2432079494052
481.7170459520451
444.18786454805127
410.8036323070721
381.60745635299696
356.50406406835236
335.28475416667374
317.6529474184287
303.25202191365827
291.6919601696652
282.5738749204388
275.51055340683365
270.1429768931673
266.1520210686386
263.26628901606216
261.2664484668317
259.9872633528386
259.31815535343776
259.2030899383261
259.64036652290036
260.6824506627261
262.4356767633885
265.0593629572949
268.76357407161964
273.80476187791567
280.47877809906
289.1108106265608
300.0431577252435
313.62220704289217
330.19193534056944
349.891408968292
485.0421182749819
444.1878403477318
407.5300138405105
375.1629889212042
347.0528872847925
323.04464583530665
302.8823263424122
286.23414226606116
272.7198983480468
261.9368698904167
253.48260893806486
246.97405126113884
242.06208962868905
238.44165075242574
235.85818921071694
234.1110703782419
233.0550658498774
232.6006746856817
232.71405493834666
233.4168952340643
234.78625915297613
236.95405581192549
240.10556628686717
244.47613981228153
250.3454410399145
258.02852229507187
267.86352916699974
280.196174173733
295.3594885984607
313.6221984376508
335.229174540029
450.7629456092828
410.80359255600746
375.16298509537756
343.87894157692136
316.8612185624591
293.9080393844713
274.72774477251824
258.96490789000217
246.22630759895736
236.10547577293806
228.20370959597838
222.14742517740257
217.60084012958995
214.27486428404328
211.9324080203453
210.39125168721296
209.5252504490805
209.2646620267232
209.59621184532185
210.56306034504973
212.26455737698583
214.85535111756107
218.54309930717585
223.58395849115882
230.27519867149283
238.9441329489948
249.93336972477516
263.5814043637649
280.19619198606586
300.0431708267795
323.3271271636872
420.5388922911372
381.6074121548155
347.0528585796422
316.86131906776444
290.8977026620783
268.92555774727185
250.62961189351054
235.6413321625064
223.56369395910224
213.99363895482094
206.54154678074613
200.84668447416524
196.58845882805775
193.49423791083916
191.34398215150088
189.97282809868858
189.27223463884204
189.19048490903558
189.73289634483532
190.9618332994116
192.99626017182308
196.01031303910437
200.23003742660885
205.92761532993038
213.4122098464453
223.0169479226171
235.08193274545008
249.93336179219
267.8635233119746
289.1108103186646
313.8376010920537
394.34371571617834
356.50411782789615
323.0447157922106
293.90800003609445
268.92554097703834
247.83737525419343
230.31543789525787
215.98727283180048
204.45922191300414
195.33698999198288
188.24345734264244
182.83241838101358
178.79895913367372
175.88635415599592
173.8904587572289
172.66219185733655
172.10881666455714
172.19465136945396
172.94140547069614
174.4281433671613
176.79053190491695
180.21872271795877
184.9530853474153
191.27711426450168
199.50665054923095
209.97544783363608
223.01694273711803
238.94413467673786
258.0285283631233
280.47875499597876
306.4209718703743
372.0256961086718
335.2847881260203
302.88238751967856
274.727695864955
250.62958762966386
230.3154290975169
213.45328733720592
199.67413858417967
188.59283608013067
179.82726672202517
173.01446071113494
167.82319035794106
163.96358365981698
161.19360912673284
159.32339501277363
158.21778097069767
157.79786033541578
158.041868266752
158.9855938591532
160.72220206331787
163.40106062239968
167.22486217052978
172.44441625174437
179.3502856005231
188.26081683196756
199.50664461626846
213.4121980259225
230.27518203270918
250.34544338614853
273.80476144602727
300.75000073373224
353.33453314167326
317.6529790752882
286.2340684333637
258.96485771119717
235.6413388625741
215.9872953535572
199.67413141024173
186.341366089398
175.61577844037157
167.1291464007871
160.532905999796
155.51023371413936
151.7849764126827
149.12814292000232
147.36226106007405
146.36414671563776
146.06669979646435
146.45993363445888
147.5913946554885
149.56576508209181
152.5431907331338
156.73568558921534
162.40102005612866
169.83330588971347
179.3502810742935
191.27710702910935
205.92762031033712
223.58396086745338
244.4761238867892
268.763553881126
296.52057290285336
337.94823799929196
303.25205779740253
272.7198586636095
246.22629228188987
223.56370108521642
204.45920121252337
188.5928274297014
175.61580172718325
165.16853256413987
156.8969263525935
150.46622887187294
145.5726396615776
141.95205975732586
139.3866780409203
137.7094759218671
136.80731591244398
136.62292666483023
137.15603720373127
138.4637269224689
140.65974705566026
143.91232847910567
148.43997300214627
154.5045185563747
162.40102466293052
172.4444208508206
184.95308699924627
200.23003642168575
218.54309445906372
240.10556881238114
265.0593727699756
293.4625042858399
325.50003710204174
291.6918960725882
261.93684145137536
236.10546651144895
213.99364942626926
195.3369895198938
179.82727836200615
167.129137580847
156.89691960669307
148.78984671939625
142.48569579128784
137.69192368054132
134.15462911568414
131.66526834121754
130.06542522429365
129.25017812494957
129.1702278372635
129.83309951768217
131.30335657795698
133.70161049063046
137.20186906335928
142.02676465646326
148.43996923655035
156.73568573393788
167.22486073773365
180.21871985921288
196.01030917695272
214.85533093114228
236.95404040461554
262.4356595682807
291.3474091975129
315.6034555115355
282.57382277032303
253.48258788368994
228.20372244224407
206.54153033024267
188.24345795853452
173.01447330536078
160.53290927613136
150.46623610251547
142.48569458033774
136.2797732538514
131.5653364280542
128.09680668875143
125.67306791990504
124.14259415357479
123.40700140171087
123.42330227188599
124.20510073790129
125.8226444266207
128.40151462752732
132.11961046579444
137.20187687635388
143.91232981666872
152.54318728006157
163.40105510237194
176.79053199613102
192.99625790854589
212.26455502500343
234.78626470688414
260.6824580237535
289.9944724546383
307.874276541023
275.5105248344218
246.97405123505638
222.14744130337482
200.84666860070632
182.83243039565141
167.8231817546631
155.51023677996483
145.5726285022742
137.69192257832137
131.5653452545671
126.91729778030465
123.50872311194713
121.14429956458405
119.67786091389439
119.01607948183157
119.12084073053009
120.01035731251096
121.7590564423317
124.49599581468506
128.40152147157062
133.7016148941388
140.6597449182055
149.56577505624605
160.72221251859364
174.42815575834652
190.9618266189873
210.56305262457533
233.41689813687586
259.64036970797224
289.2733182409408
301.9491967369732
270.1429651022833
242.06210350191415
217.60082158958565
196.58846142891105
178.79897883016898
163.9635799795337
151.78498371951807
141.95205616867585
134.15463445638514
128.09680199244613
123.50871986447396
120.15619583634809
117.84826938649336
116.44280235864971
115.85030001355477
116.03631879655187
117.02249835718163
118.88626633887225
121.75904889038537
125.82264228206465
131.30336294698546
138.46371943927332
147.59139224798042
158.98559036249904
172.94140113454088
189.73289449584337
209.5962102321335
232.71406259027987
259.2030672950769
289.10541018278093
297.49846861506137
266.1520193634867
238.44167634199604
214.2748476017173
193.49424372004574
175.88633739034557
161.19361251498552
149.12813498843525
139.38667524962764
131.66527546647313
125.673062762951
121.14430100727797
117.84826856973385
115.59714622423107
114.25171673107945
113.72534565538913
113.98632610416104
115.05884015760012
117.02249706389995
120.0103596671841
124.20510093406217
129.83310363810966
137.15603665065447
146.45993996248305
158.04187777847318
172.19464604399283
189.1904790445263
209.2646559133771
232.6006766309743
259.318158880116
289.4647372398226
294.23586042539745
263.26630519916466
235.85816989277828
211.93240606308834
191.3440054807228
173.89045617456705
159.323407558129
147.36225887606597
137.70947502336955
130.0654238064517
124.1425946940789
119.67786322303196
116.44280122785132
114.25171846978189
112.96750182360593
112.50564313632111
112.83653576530868
113.98632505703122
116.03631654878092
119.120838509914
123.42330262196444
129.17022549295666
136.6229192292476
146.06669800733616
157.79785786100618
172.10881534900213
189.27223334431292
209.52525022257075
233.0550475840459
259.98726029649544
290.3778445491812
291.9240980996672
261.2664690336111
234.1110575943866
210.39125735733512
189.9728097299841
172.6621922683231
158.21776823902843
146.3641487854677
136.80732061039626
129.2501775080279
123.40700291733414
119.01607463002406
115.850300990609
113.72534368771242
112.50564324373302
112.10836075493043
112.50564388777595
113.72534456481354
115.85030307809322
119.01607693599516
123.40700053109889
129.2501821926963
136.80731648026435
146.36415470811346
158.2177750979808
172.66218654711216
189.97282368445264
210.39124709394537
234.11107581699846
261.26643651312565
291.92410050566247
290.37787440134446
259.9872398483644
233.05507345421793
209.52527450109105
189.27223006513583
172.1088317322699
157.79785902512114
146.06670758473894
136.6229194796902
129.17023260823666
123.42330884442202
119.12083894718751
116.03632283769096
113.98632593615861
112.83653647804728
112.50564438171759
112.96750287482513
114.2517158958385
116.4428026237438
119.67786010295215
124.14259074410036
130.06542511556611
137.70946864209935
147.3622591993989
159.32339486879158
173.890460003963
191.34398513552745
211.93238370485938
235.85818683869812
263.26627258546034
294.2358608249312
289.46476982140945
259.31813842593044
232.6006877619063
209.26463909008643
189.19048510615983
172.194637336379
158.04187029105444
146.45994471187416
137.1560306922951
129.83310655828635
124.20509785797142
120.01035688444729
117.02249567689658
115.05883904033522
113.98632715444448
113.72534587892687
114.25171714206033
115.59714768042791
117.84827017943563
121.1442990945204
125.67306631676243
131.66527193269732
139.3866798144505
149.12814022622132
161.19360718084687
175.8863485182986
193.49423358639424
214.27486155602074
238.44164286438635
266.15201534677857
297.4984990325553
289.1053739297264
259.2030800774083
232.7140744251062
209.59619256469307
189.7329015068776
172.94139234429718
158.9855933866768
147.5913855169765
138.46372250254225
131.30336604874444
125.82263899334332
121.75905419553231
118.88626489437816
117.0224972362927
116.0363186465865
115.85030004127236
116.4428008243422
117.84827065988435
120.15619424930874
123.50871821212455
128.0968050326127
134.1546322330203
141.95206030823968
151.7849782036633
163.9635895358715
178.79896894377873
196.58845087654115
217.6008462759988
242.06208451267398
270.1429749630475
301.9492403272276
289.27329832621604
259.6403814134776
233.41687795995236
210.56305873766493
190.96181588508418
174.4281466133191
160.72221794036633
149.56576779498573
140.65974845981916
133.7016110409306
128.40151798762034
124.49599391119428
121.75905483070413
120.01035940687574
119.12084060680426
119.01607949229864
119.67786183179524
121.14430058268545
123.50872162326456
126.91730039405851
131.56534229190487
137.69192604054857
145.57263240393104
155.51023193114676
167.82319051752293
182.8324208064892
200.8466796351865
222.1474098777757
246.97404566684818
275.5105501965154
307.8743302144115
289.9944832584657
260.6824690126126
234.78624345901815
212.26456219530021
192.99624736455388
176.79053537574924
163.40104703827228
152.54319096767728
143.9123336066886
137.20187285719905
132.11961726176492
128.40151278058678
125.82264292305523
124.2051002227954
123.42330186778159
123.40700086093501
124.142594978056
125.67306671715197
128.09680544322276
131.56533863340212
136.2797713284623
142.4856976660169
150.46623125011718
160.53291684325472
173.0144643060558
188.24344834408168
206.54155143713714
228.2037055145985
253.4825986136843
282.5738682008075
315.6033725555856
291.34741776880946
262.4356346400854
236.95404629739946
214.85531834313034
196.0102985834368
180.2187261078155
167.2248523441598
156.73569003193737
148.43996471378225
142.02676056338083
137.2018667017409
133.70160841935214
131.30335969914583
129.83309914395042
129.17022753625452
129.2501786173712
130.06542577266967
131.66526723602635
134.15463099296377
137.69192125055642
142.48569840720504
148.78984957405888
156.89691532022
167.12914452637716
179.8272697564284
195.33699886137566
213.99362190871148
236.10546356515644
261.9368708771762
291.69196708238735
325.49999912062293
293.46253421084594
265.0593694616884
240.10559625617952
218.54310096187623
200.2300574841978
184.95309380107327
172.4444402425353
162.4010433310236
154.50452727673897
148.43999406375585
143.91233858837143
140.6597570931689
138.4637376046613
137.15604760978664
136.6229378635673
136.80732697981128
137.7094852600046
139.386686953347
141.95207060598108
145.57264667034696
150.46623903449193
156.89692914316615
165.16854447218972
175.6157984194506
188.59282236087807
204.45922154045294
223.56368721102282
246.22630364765803
272.71990480918885
303.2519859133437
337.9482078790385
296.52056959396987
268.7635834717161
244.47613140304736
223.58396923681227
205.92764635390924
191.27711566237028
179.35030320820832
169.83331713540943
162.40103115566552
156.7356980032722
152.5432029968304
149.5657835287621
147.59140820924534
146.45994692420308
146.06671351263418
146.36416015907136
147.36227320063824
149.12815674970844
151.78498645555425
155.51024709477716
160.53291869490417
167.12915239323064
175.61579262892673
186.34136586951925
199.67414531425672
215.98727558657743
235.64133990431486
258.96488755364004
286.2341351022746
317.6529393900814
353.334519228328
300.7499906080838
273.8047824122101
250.34544209207905
230.27519754789876
213.41219848350056
199.50665979329597
188.26083177559332
179.35028975351716
172.4444348977807
167.22486859565018
163.40106718906083
160.72220946113882
158.98560109208978
158.04187747482132
157.79786869726058
158.21778831664093
159.32340224395455
161.19361783886686
163.96358961312814
167.8231990447715
173.01446372051007
179.8272775548836
188.59283438514743
199.6741358244986
213.45330693511832
230.31541886866435
250.62960024781196
274.7277396663876
302.88231977097206
335.2847561692573
372.0256994763502
306.42098077106016
280.47874115451805
258.0285167282169
238.94414329120568
223.01693350744515
209.9754541138888
199.5066455023861
191.27710962909262
184.9530824885144
180.21872004832304
176.79053679378518
174.42814280156782
172.94140483996574
172.1946513385011
172.10881661735732
172.66219135922785
173.8904596766372
175.88635253966697
178.79896059520763
182.832419677499
188.24345374219442
195.33699384712241
204.4592141037063
215.98727780946652
230.31541363291066
247.83736965454906
268.9255609218173
293.9080518443899
323.0446651824946
356.5040830242033
394.3437147964288
313.8375962233858
289.11078401393485
267.86351588878057
249.93333898562005
235.08192616774855
223.01694143612866
213.41219198715942
205.9276134921845
200.23002255237836
196.01029849675263
192.99624660556228
190.96181967664066
189.73288557959208
189.19047285049828
189.27222211448364
189.9728157511822
191.34397103667703
193.49422490809687
196.58844835686094
200.84666973573792
206.5415389769913
213.99362082780735
223.56367533952707
235.64133324704505
250.62958624450042
268.9255518464607
290.89772321707414
316.8612326876134
347.05279853286265
381.60737445402833
420.5388807632786
323.32714316506485
300.0431892892681
280.1962316236038
263.5814249877091
249.93340597930055
238.94415685954158
230.27522272661668
223.58398404778325
218.54312487158955
214.85538475783846
212.26458496618778
210.56308771291404
209.59623962050566
209.26468965235483
209.52527783245344
210.39127984248282
211.9324339300002
214.27489235165865
217.60086748388045
222.14744780345794
228.2037377405785
236.10549263679118
246.226334127838
258.9649063070424
274.72775714019673
293.90807108999275
316.8612740354165
343.8788942154075
375.16294111322605
410.80356428971567
450.7629511982333
335.2291869314544
313.6222317013785
295.35950519347307
280.19620645865535
267.86356091684513
258.02854194190706
250.34547688603067
244.47616208896994
240.10558875534593
236.9540790733561
234.7862821712556
233.4169213437557
232.7140793041239
232.60069864671655
233.05508982336988
234.11109498244355
235.85821190395686
238.44167510011994
242.06210975866003
246.9740765505741
253.48262410812873
261.9368833152044
272.7199275114763
286.23414481421753
302.8823434955776
323.0446825851196
347.05281863779754
375.1629356070947
407.5299685037822
444.18780595800183
485.04211420354784
349.8914123162659
330.19195752347304
313.6222088385969
300.04317458556443
289.1108150221381
280.47878261893027
273.80476786817917
268.7635801726944
265.0593774485127
262.4356851568954
260.68245878459345
259.64037510427033
259.20309849006225
259.3181640187702
259.9872726690161
261.26645604785364
263.2662986149349
266.15203013906546
270.1429820801961
275.51056366487836
282.57387520912573
291.6919691857564
303.2520053338125
317.6529430129415
335.2847661143859
356.50409578756785
381.6073890920679
410.8035617447352
444.18779693578506
481.7169871402135
523.2431199023754
367.8137163899799
349.8913835082598
335.22917059201484
323.3271430398953
313.8375916375462
306.4209841597742
300.7499907768388
296.52058332899134
293.4624838720354
291.34741535286616
289.99448593216675
289.27330429473994
289.10540572746794
289.4647383692843
290.3778523026061
291.9240986626166
294.23586605391097
297.4984962840365
301.94923177200644
307.874328665464
315.6033717372701
325.49999339107916
337.9482111710728
353.3345093242038
372.0256889829111
394.34370693298536
420.5388874250857
450.7629373850672
485.0420903249305
523.2431040563496
564.7681535599655
