# vtk DataFile Version 2.0
Unstructured Grid Example
ASCII
DATASET UNSTRUCTURED_GRID

POINTS 961 float
0.150000006 -0.00839745998 0
0.146666661 -0.00839745998 0
0.143333331 -0.00839745998 0
0.140000001 -0.00839745998 0
0.13666667 -0.00839745998 0
0.13333334 -0.00839745998 0
0.129999995 -0.00839745998 0
0.126666665 -0.00839745998 0
0.123333335 -0.00839745998 0
0.119999997 -0.00839745998 0
0.116666667 -0.00839745998 0
0.113333337 -0.00839745998 0
0.109999999 -0.00839745998 0
0.106666669 -0.00839745998 0
0.103333332 -0.00839745998 0
0.100000001 -0.00839745998 0
0.0966666639 -0.00839745998 0
0.0933333337 -0.00839745998 0
0.0900000036 -0.00839745998 0
0.086666666 -0.00839745998 0
0.0833333358 -0.00839745998 0
0.0799999982 -0.00839745998 0
0.0766666681 -0.00839745998 0
0.0733333305 -0.00839745998 0
0.0700000003 -0.00839745998 0
0.0666666701 -0.00839745998 0
0.0633333325 -0.00839745998 0
0.0599999987 -0.00839745998 0
0.0566666685 -0.00839745998 0
0.0533333346 -0.00839745998 0
0.0500000007 -0.00839745998 0
0.148333326 -0.0112842107 0
0.144999996 -0.0112842107 0
0.141666666 -0.0112842107 0
0.138333336 -0.0112842107 0
0.135000005 -0.0112842107 0
0.13166666 -0.0112842107 0
0.12833333 -0.0112842107 0
0.125 -0.0112842107 0
0.12166667 -0.0112842107 0
0.118333332 -0.0112842107 0
0.115000002 -0.0112842107 0
0.111666664 -0.0112842107 0
0.108333334 -0.0112842107 0
0.104999997 -0.0112842107 0
0.101666667 -0.0112842107 0
0.0983333364 -0.0112842107 0
0.0949999988 -0.0112842107 0
0.0916666687 -0.0112842107 0
0.088333331 -0.0112842107 0
0.0850000009 -0.0112842107 0
0.0816666633 -0.0112842107 0
0.0783333331 -0.0112842107 0
0.075000003 -0.0112842107 0
0.0716666654 -0.0112842107 0
0.0683333352 -0.0112842107 0
0.0649999976 -0.0112842107 0
0.0616666675 -0.0112842107 0
0.0583333336 -0.0112842107 0
0.0549999997 -0.0112842107 0
0.0516666658 -0.0112842107 0
0.0483333319 -0.0112842107 0
0.146666661 -0.0141709624 0
0.143333331 -0.0141709624 0
0.140000001 -0.0141709624 0
0.13666667 -0.0141709624 0
0.13333334 -0.0141709624 0
0.129999995 -0.0141709624 0
0.126666665 -0.0141709624 0
0.123333335 -0.0141709624 0
0.119999997 -0.0141709624 0
0.116666667 -0.0141709624 0
0.113333337 -0.0141709624 0
0.109999999 -0.0141709624 0
0.106666669 -0.0141709624 0
0.103333332 -0.0141709624 0
0.100000001 -0.0141709624 0
0.0966666639 -0.0141709624 0
0.0933333337 -0.0141709624 0
0.0900000036 -0.0141709624 0
0.086666666 -0.0141709624 0
0.0833333358 -0.0141709624 0
0.0799999982 -0.0141709624 0
0.0766666681 -0.0141709624 0
0.0733333305 -0.0141709624 0
0.0700000003 -0.0141709624 0
0.0666666701 -0.0141709624 0
0.0633333325 -0.0141709624 0
0.0599999987 -0.0141709624 0
0.0566666685 -0.0141709624 0
0.0533333346 -0.0141709624 0
0.0500000007 -0.0141709624 0
0.0466666669 -0.0141709624 0
0.144999996 -0.0170577131 0
0.141666666 -0.0170577131 0
0.138333336 -0.0170577131 0
0.135000005 -0.0170577131 0
0.13166666 -0.0170577131 0
0.12833333 -0.0170577131 0
0.125 -0.0170577131 0
0.12166667 -0.0170577131 0
0.118333332 -0.0170577131 0
0.115000002 -0.0170577131 0
0.111666664 -0.0170577131 0
0.108333334 -0.0170577131 0
0.104999997 -0.0170577131 0
0.101666667 -0.0170577131 0
0.0983333364 -0.0170577131 0
0.0949999988 -0.0170577131 0
0.0916666687 -0.0170577131 0
0.088333331 -0.0170577131 0
0.0850000009 -0.0170577131 0
0.0816666633 -0.0170577131 0
0.0783333331 -0.0170577131 0
0.075000003 -0.0170577131 0
0.0716666654 -0.0170577131 0
0.0683333352 -0.0170577131 0
0.0649999976 -0.0170577131 0
0.0616666675 -0.0170577131 0
0.0583333336 -0.0170577131 0
0.0549999997 -0.0170577131 0
0.0516666658 -0.0170577131 0
0.0483333319 -0.0170577131 0
0.0450000018 -0.0170577131 0
0.143333331 -0.0199444648 0
0.140000001 -0.0199444648 0
0.13666667 -0.0199444648 0
0.13333334 -0.0199444648 0
0.129999995 -0.0199444648 0
0.126666665 -0.0199444648 0
0.123333335 -0.0199444648 0
0.119999997 -0.0199444648 0
0.116666667 -0.0199444648 0
0.113333337 -0.0199444648 0
0.109999999 -0.0199444648 0
0.106666669 -0.0199444648 0
0.103333332 -0.0199444648 0
0.100000001 -0.0199444648 0
0.0966666639 -0.0199444648 0
0.0933333337 -0.0199444648 0
0.0900000036 -0.0199444648 0
0.086666666 -0.0199444648 0
0.0833333358 -0.0199444648 0
0.0799999982 -0.0199444648 0
0.0766666681 -0.0199444648 0
0.0733333305 -0.0199444648 0
0.0700000003 -0.0199444648 0
0.0666666701 -0.0199444648 0
0.0633333325 -0.0199444648 0
0.0599999987 -0.0199444648 0
0.0566666685 -0.0199444648 0
0.0533333346 -0.0199444648 0
0.0500000007 -0.0199444648 0
0.0466666669 -0.0199444648 0
0.043333333 -0.0199444648 0
0.141666666 -0.0228312165 0
0.138333336 -0.0228312165 0
0.135000005 -0.0228312165 0
0.13166666 -0.0228312165 0
0.12833333 -0.0228312165 0
0.125 -0.0228312165 0
0.12166667 -0.0228312165 0
0.118333332 -0.0228312165 0
0.115000002 -0.0228312165 0
0.111666664 -0.0228312165 0
0.108333334 -0.0228312165 0
0.104999997 -0.0228312165 0
0.101666667 -0.0228312165 0
0.0983333364 -0.0228312165 0
0.0949999988 -0.0228312165 0
0.0916666687 -0.0228312165 0
0.088333331 -0.0228312165 0
0.0850000009 -0.0228312165 0
0.0816666633 -0.0228312165 0
0.0783333331 -0.0228312165 0
0.075000003 -0.0228312165 0
0.0716666654 -0.0228312165 0
0.0683333352 -0.0228312165 0
0.0649999976 -0.0228312165 0
0.0616666675 -0.0228312165 0
0.0583333336 -0.0228312165 0
0.0549999997 -0.0228312165 0
0.0516666658 -0.0228312165 0
0.0483333319 -0.0228312165 0
0.0450000018 -0.0228312165 0
0.0416666679 -0.0228312165 0
0.140000001 -0.0257179681 0
0.13666667 -0.0257179681 0
0.13333334 -0.0257179681 0
0.129999995 -0.0257179681 0
0.126666665 -0.0257179681 0
0.123333335 -0.0257179681 0
0.119999997 -0.0257179681 0
0.116666667 -0.0257179681 0
0.113333337 -0.0257179681 0
0.109999999 -0.0257179681 0
0.106666669 -0.0257179681 0
0.103333332 -0.0257179681 0
0.100000001 -0.0257179681 0
0.0966666639 -0.0257179681 0
0.0933333337 -0.0257179681 0
0.0900000036 -0.0257179681 0
0.086666666 -0.0257179681 0
0.0833333358 -0.0257179681 0
0.0799999982 -0.0257179681 0
0.0766666681 -0.0257179681 0
0.0733333305 -0.0257179681 0
0.0700000003 -0.0257179681 0
0.0666666701 -0.0257179681 0
0.0633333325 -0.0257179681 0
0.0599999987 -0.0257179681 0
0.0566666685 -0.0257179681 0
0.0533333346 -0.0257179681 0
0.0500000007 -0.0257179681 0
0.0466666669 -0.0257179681 0
0.043333333 -0.0257179681 0
0.0399999991 -0.0257179681 0
0.138333336 -0.0286047198 0
0.135000005 -0.0286047198 0
0.13166666 -0.0286047198 0
0.12833333 -0.0286047198 0
0.125 -0.0286047198 0
0.12166667 -0.0286047198 0
0.118333332 -0.0286047198 0
0.115000002 -0.0286047198 0
0.111666664 -0.0286047198 0
0.108333334 -0.0286047198 0
0.104999997 -0.0286047198 0
0.101666667 -0.0286047198 0
0.0983333364 -0.0286047198 0
0.0949999988 -0.0286047198 0
0.0916666687 -0.0286047198 0
0.088333331 -0.0286047198 0
0.0850000009 -0.0286047198 0
0.0816666633 -0.0286047198 0
0.0783333331 -0.0286047198 0
0.075000003 -0.0286047198 0
0.0716666654 -0.0286047198 0
0.0683333352 -0.0286047198 0
0.0649999976 -0.0286047198 0
0.0616666675 -0.0286047198 0
0.0583333336 -0.0286047198 0
0.0549999997 -0.0286047198 0
0.0516666658 -0.0286047198 0
0.0483333319 -0.0286047198 0
0.0450000018 -0.0286047198 0
0.0416666679 -0.0286047198 0
0.038333334 -0.0286047198 0
0.13666667 -0.0314914696 0
0.13333334 -0.0314914696 0
0.129999995 -0.0314914696 0
0.126666665 -0.0314914696 0
0.123333335 -0.0314914696 0
0.119999997 -0.0314914696 0
0.116666667 -0.0314914696 0
0.113333337 -0.0314914696 0
0.109999999 -0.0314914696 0
0.106666669 -0.0314914696 0
0.103333332 -0.0314914696 0
0.100000001 -0.0314914696 0
0.0966666639 -0.0314914696 0
0.0933333337 -0.0314914696 0
0.0900000036 -0.0314914696 0
0.086666666 -0.0314914696 0
0.0833333358 -0.0314914696 0
0.0799999982 -0.0314914696 0
0.0766666681 -0.0314914696 0
0.0733333305 -0.0314914696 0
0.0700000003 -0.0314914696 0
0.0666666701 -0.0314914696 0
0.0633333325 -0.0314914696 0
0.0599999987 -0.0314914696 0
0.0566666685 -0.0314914696 0
0.0533333346 -0.0314914696 0
0.0500000007 -0.0314914696 0
0.0466666669 -0.0314914696 0
0.043333333 -0.0314914696 0
0.0399999991 -0.0314914696 0
0.0366666652 -0.0314914696 0
0.135000005 -0.0343782231 0
0.13166666 -0.0343782231 0
0.12833333 -0.0343782231 0
0.125 -0.0343782231 0
0.12166667 -0.0343782231 0
0.118333332 -0.0343782231 0
0.115000002 -0.0343782231 0
0.111666664 -0.0343782231 0
0.108333334 -0.0343782231 0
0.104999997 -0.0343782231 0
0.101666667 -0.0343782231 0
0.0983333364 -0.0343782231 0
0.0949999988 -0.0343782231 0
0.0916666687 -0.0343782231 0
0.088333331 -0.0343782231 0
0.0850000009 -0.0343782231 0
0.0816666633 -0.0343782231 0
0.0783333331 -0.0343782231 0
0.075000003 -0.0343782231 0
0.0716666654 -0.0343782231 0
0.0683333352 -0.0343782231 0
0.0649999976 -0.0343782231 0
0.0616666675 -0.0343782231 0
0.0583333336 -0.0343782231 0
0.0549999997 -0.0343782231 0
0.0516666658 -0.0343782231 0
0.0483333319 -0.0343782231 0
0.0450000018 -0.0343782231 0
0.0416666679 -0.0343782231 0
0.038333334 -0.0343782231 0
0.0350000001 -0.0343782231 0
0.13333334 -0.0372649729 0
0.129999995 -0.0372649729 0
0.126666665 -0.0372649729 0
0.123333335 -0.0372649729 0
0.119999997 -0.0372649729 0
0.116666667 -0.0372649729 0
0.113333337 -0.0372649729 0
0.109999999 -0.0372649729 0
0.106666669 -0.0372649729 0
0.103333332 -0.0372649729 0
0.100000001 -0.0372649729 0
0.0966666639 -0.0372649729 0
0.0933333337 -0.0372649729 0
0.0900000036 -0.0372649729 0
0.086666666 -0.0372649729 0
0.0833333358 -0.0372649729 0
0.0799999982 -0.0372649729 0
0.0766666681 -0.0372649729 0
0.0733333305 -0.0372649729 0
0.0700000003 -0.0372649729 0
0.0666666701 -0.0372649729 0
0.0633333325 -0.0372649729 0
0.0599999987 -0.0372649729 0
0.0566666685 -0.0372649729 0
0.0533333346 -0.0372649729 0
0.0500000007 -0.0372649729 0
0.0466666669 -0.0372649729 0
0.043333333 -0.0372649729 0
0.0399999991 -0.0372649729 0
0.0366666652 -0.0372649729 0
0.0333333351 -0.0372649729 0
0.13166666 -0.0401517227 0
0.12833333 -0.0401517227 0
0.125 -0.0401517227 0
0.12166667 -0.0401517227 0
0.118333332 -0.0401517227 0
0.115000002 -0.0401517227 0
0.111666664 -0.0401517227 0
[...]
POINT_DATA 961
SCALARS Temp float 1
LOOKUP_TABLE default
582.1065452919124
541.5373434898673
503.9754389334834
469.9805394933509
439.7017293456051
413.1498773717774
390.2251158876639
370.7382142587833
354.43104911336064
340.9986283407655
330.11013090820825
321.4279950700171
314.6246499326597
309.3960494409144
305.4718355591945
302.62274205828123
300.6653303853787
299.4649152004274
298.93707999726155
299.04833330780536
299.8161191330974
301.3082287875157
303.64140651716053
306.9788583220192
311.52611726584007
317.5251099055968
325.2461705072896
334.9785401136717
347.02143915937785
361.68221901858436
379.414247936753
541.5373547243091
500.8650308667589
463.817284937489
430.55358433987726
401.1456166377174
375.54447213731044
353.5999155353047
335.0799926860307
319.69321334912456
307.11035698771207
296.9854023482635
288.97387718923767
282.74863161446933
278.0119718967027
274.5048499854358
272.0130333341829
270.3710969306845
269.4647058040842
269.23172111105094
269.66257319604904
270.7999953549325
272.7380503574675
275.6202005950303
279.6359549422631
285.0156673009595
292.02333123270705
300.94716278928837
312.0890155697641
325.75386394829036
342.24611361736527
361.68223828311113
503.9753931960767
463.8172608211356
427.47957027499183
395.07717258661256
366.6148241299971
341.99056004781755
321.01076333000145
303.40947893416075
288.8705954982012
277.04944866135725
267.59264077580764
260.1556049107633
254.41696136554972
250.08943228412383
246.92792708093936
244.73482280288798
243.36333650253033
242.71935602945402
242.76232156854167
243.50537277932492
245.0148211122161
247.40874828001773
250.85441570382594
255.5639199049696
261.7878453599131
269.8064967508096
279.91874686780227
292.42872273067667
307.62883469760504
325.75385544928906
347.0214515199508
469.98047560903086
430.55354437372245
395.07716846449904
363.6176221581535
336.12964492522065
312.4683759033765
292.405666927446
275.6508664579578
261.87206795739223
250.71701572208408
241.83175554812308
234.8770023785707
229.54099284916117
225.54949387581215
222.67276091267422
220.73026180574388
219.59357429000602
219.18797055501176
219.49314744654868
220.54319397026202
222.42575926409276
225.28017352001535
229.29405249872366
234.69790354548596
241.75744285012638
250.7630897165352
262.0168522209123
275.815650589581
292.42874059304484
312.0890285861672
334.9785318386593
439.7016593995131
401.14557164821827
366.6147946505247
336.1297474533856
309.6038790372758
286.85875394670336
267.64150513894833
251.6455653911919
238.5313412500649
227.94562651916394
219.53928279629903
212.98210659696252
207.97451427412662
204.25658362728603
201.61429570197097
199.88382471004672
198.95414094446556
198.76851305596608
199.325114486309
200.6768138920374
202.9299947314427
206.2420978420476
210.81733040603473
216.90022445626698
224.76649315831602
234.71096865728344
247.0326465131384
262.016844260859
279.91874095522803
300.94716260126796
325.24617498758016
413.14979752159076
375.54452701699984
341.99063141924614
312.4683361751817
286.85873689593654
264.9586986949356
246.49970432830145
231.16732439550177
218.62092521779553
208.51172959472478
200.49926677002918
194.26477100544443
189.5221376780896
186.02599080454132
183.57757561584427
182.02873645838957
181.2844116918138
181.30409823279857
182.10235980160311
183.74840643897247
186.3645277045465
190.1229650639638
195.24074577216683
201.97215042376618
210.59824108068074
221.41371407514
234.71096332192565
250.7630914719458
269.806502681833
292.02330810398024
317.5251091522904
390.22513481483577
353.59995028771664
321.0108254793111
292.4056172154082
267.6414800478959
246.49969502775366
228.7038858188762
213.9386034334093
201.86732649215563
192.14955341730584
184.45580793194281
178.48002310552528
173.94972555892187
170.63358006302744
168.3470308677018
166.95611833239607
166.38001539367738
166.59245200502372
167.62213026977685
169.55205691593537
172.5175315896432
176.70232017530353
182.33270636366174
189.66890274158212
198.9936477529974
210.5982350152792
224.76648108203452
241.7574258584949
261.78784808755984
285.01566703858884
311.52612463055345
370.73823275037347
335.0800245825535
303.40940386843846
275.65081478770975
251.64557303795385
231.1673481375485
213.93859574434913
199.6479628969635
187.96687881570978
178.56551149979256
171.1264263658769
165.3564872477881
160.9962318462704
157.82727843665975
155.67779645122008
154.42632956706865
154.00438986192205
154.39785212093892
155.64726287439376
157.84689735068048
161.14226495282932
165.72565518816455
171.82943966715237
179.71662143552882
189.66889800766066
201.97214281010673
216.90022974728933
234.69790602247966
255.56390399921204
279.63593475962335
306.97884612154087
354.43105779492316
319.6932493357752
288.8705569698321
261.8720533399148
238.53134902133374
218.62090340625693
201.86731709365046
187.96690412264127
176.60142933297706
167.4527576576161
160.21570591499523
154.6093891959312
150.3862646309754
147.33945322246106
145.30815423784188
144.18161553884522
143.9017528114169
144.46452932062564
145.92012394811303
148.3716913777744
151.97238735971604
156.92040554778006
163.4515894304525
171.82944450889136
182.3327114305427
195.24074771577799
210.81732949474815
229.2940476347421
250.85441806108955
275.62021069812704
303.6414260278493
340.9986791000236
307.1102935049399
277.04941996066566
250.7170058552629
227.94563643652785
208.51172939422003
192.14956572335615
178.56550170591694
167.45275016155125
158.50484666970803
151.42829640999526
145.95326465966258
141.84268377214568
138.8995186229663
136.97227781480834
135.95911924050105
135.81048962720683
136.5305001094895
138.17691933850202
140.85963357214806
144.73726769420665
150.0117530992014
156.920401581883
165.72565541869432
176.7023186268142
190.1229619599249
206.24209357536097
225.28015333961199
247.40873296524012
272.73803323386477
301.3082209380154
330.11020790623877
296.98535049245726
267.59261896445855
241.8317696714321
219.5392660810266
200.4992673672093
184.45582091842007
171.12643022930672
160.21571393021839
151.4282950392289
144.48110839090143
139.1139343671229
135.09856574257142
132.24609378810302
130.41265590861835
129.5036116105971
129.47623180734212
130.34102339608057
132.16155154996784
135.05260325887713
139.17650704472464
144.73727626195281
151.97238879766917
161.1422613107835
172.5175257389566
186.36452804850438
202.92999262836602
222.4257569128058
245.01482664772445
270.80000255007195
299.81610750766436
321.4279362316839
288.97385009205584
260.1556057528058
234.87701922312732
212.98209018402974
194.2647844032338
178.48001439397237
165.35649069248944
154.60937714789046
145.95326337194092
139.11394444207195
133.83920398149914
129.90801373084233
127.13798639585761
125.39132027299536
124.57902503987063
124.66369400091862
125.66072250702834
127.63797533277447
130.71370739923333
135.05261082814803
140.8596384243804
148.37168909913763
157.8469081482046
169.5520680430647
183.7484193162014
200.6768071516083
220.54318616398723
243.50537585263513
269.6625764963563
299.0483469365386
314.62461629570856
282.7486194221653
254.41697472022412
229.5409743179729
207.97451710119438
189.5221580002698
173.94972149061877
160.99623922758335
150.3862609960134
141.84268970866472
135.09856043234402
129.90801002175542
126.05555228713065
123.36384559574914
121.69973518851661
120.97857443283142
121.1670085551561
122.28410850319015
124.40087031834112
127.63796685545636
132.16154917843159
138.1769263663918
145.92011597412318
155.6472603589488
167.6221266358767
182.10235532988696
199.3251126755214
219.4931458858856
242.7623293012522
269.23169864627863
298.93708415119943
309.3960178330779
278.01197076618934
250.0894584439422
225.5494770097928
204.25658968685997
186.0259730488215
170.63358407452117
157.82727015271396
147.3394503274363
138.8995264220594
132.24608798218026
127.13798819165302
123.36384467445707
120.75005636176454
119.16690569843199
118.53303082575881
118.81813202763433
120.0440480060932
122.2841070498476
125.66072517211589
130.3410236684746
136.5305046812647
144.46452878554388
154.39785887620863
166.59246200317244
181.30409278448232
198.7685071309166
219.18796444441335
242.71935786646705
269.46470918480907
299.46491369846547
305.47182952617686
274.5048657448645
246.92790710189098
222.67275836382885
201.614319810544
183.57757300192532
168.3470439231925
155.6777939799144
145.308153101672
136.9722763040398
130.4126565631725
125.39132289455354
121.6997338674806
119.16690774557112
117.66564846456485
117.1170613383482
117.49321709312404
118.81813082698679
121.16700600603929
124.6636915564937
129.4762322655026
135.81048714295287
143.9017448426477
154.00438804290948
166.38001296583363
181.28441051209484
198.95413956013292
219.59357409118425
243.3633182002589
270.3710941473188
300.66532335818056
302.6227399722697
272.01305346157915
244.73481027968114
220.73026784405775
199.88380587992154
182.0287369016876
166.95610482041585
154.42633196052
144.1816207470649
135.95911864324816
129.5036133384678
124.57901966509328
120.9785756128013
118.5330285699986
117.11706146369309
116.65371902697382
117.11706220850364
118.53302957914077
120.9785779672485
124.57902225025953
129.50361064611124
135.9591237157004
144.18161625741502
154.42633819378898
166.95611197808904
182.02873086112146
199.88382016227914
220.73025732550445
244.73482849369876
272.0130209103077
302.62274253570007
300.6653527546835
270.371073418324
243.36334403651026
219.5935985259126
198.95413612398198
181.28442736758296
166.3800141464771
154.0043982263159
143.90174508505345
135.81049494767228
129.47623917376774
124.66369205220428
121.167013180326
118.81813184026416
117.49321791871758
117.11706278543625
117.66564969144079
119.16690476493763
121.69973551006716
125.39131943632732
130.41265224576972
136.97227790882732
145.30814635913515
155.67779455827073
168.3470308882685
183.57757728365317
201.61429932425614
222.67273604999957
246.92792485093779
274.5048337665415
305.4718310028058
299.4649463649822
269.46468895972777
242.71936914677238
219.18794746330732
198.76851345704858
181.3040838542137
166.5924542650807
154.39786395698343
144.46452245935401
136.53050791703666
130.34102028418673
125.66072209076991
122.28410547947068
120.04404673485455
118.81813322156951
118.53303109023159
119.16690618278062
120.75005803676214
123.36384651636251
127.13798599116403
132.24609190931017
138.89952250725992
147.33945521725366
157.82727571035053
170.63357834271338
186.02598458695104
204.25657914275857
225.54949106359982
250.08942457268782
278.01196677194355
309.396048621088
298.9370482418225
269.2317114808149
242.76234125426356
219.49312818231283
199.32511990557558
182.10234636204586
167.62212990767821
155.647253279379
145.920119339226
138.17692977782167
132.16154557342043
127.63797282294877
124.4008686931422
122.28410723499869
121.16700839672606
120.97857448234015
121.6997333398837
123.36384706871793
126.05555043703914
129.9080080962697
135.09856382726525
141.8426871884556
150.38626543604227
160.9962332702007
173.94973144851673
189.52214758498837
207.97450602838072
229.54099940596876
254.41695522638707
282.7486291039865
314.6246597101067
299.0483273068715
269.6625882773821
243.50535576295601
220.5431924994592
200.67679631380435
183.7484100169906
169.55207375406232
157.84690057263035
148.37169295129655
140.85963425634216
135.05260703558028
130.71370527526793
127.63797352787462
125.66072487483207
124.66369385901255
124.57902506556414
125.39132135314632
127.13798758926397
129.9080119771489
133.83920692625557
139.1139410795854
145.9532671310417
154.60938133923028
165.35648534348798
178.48002355568204
194.26477417390953
212.98210123934743
234.8769867640377
260.1555995490059
288.97387471056277
321.4279879075659
299.8161184223069
270.800013632598
245.0148056136641
222.42576423619565
202.92998202114003
186.36453164874123
172.51751739522882
161.142265286633
151.97239288417535
144.73727193009884
139.176514555558
135.052601196397
132.1615498646158
130.3410228244957
129.4762313755157
129.50361088784587
130.41265687028272
132.24609235063625
135.0985642378746
139.11393686899515
144.48110614275828
151.4282983778367
160.21570853441273
171.12643816763187
184.45581117550563
200.4992569492957
219.5392875335696
241.83175164706412
267.59262883777365
296.98539447527315
330.110121996903
301.3082296914647
272.7380086802994
247.4087390122272
225.28014077647026
206.242082939802
190.12296843404602
176.70230999661644
165.72566000259408
156.92039675860016
150.01174870857534
144.7372650921801
140.85963128605417
138.176922836267
136.53049966360553
135.8104892891046
135.95911983731273
136.97227847943944
138.89951727525627
141.8426859199777
145.95326181240435
151.42829926330631
158.50484974840873
167.4527452645532
178.56550898178392
192.14955624639805
208.51173865180675
227.94560735029646
250.7170018744442
277.049448426567
307.1103631398413
340.9986391469622
303.6414560007923
275.6202079638726
250.85444590119752
229.29405468938705
210.81735136235272
195.24075506596685
182.33273190211318
171.8294643250644
163.45159878461038
156.92042826964737
151.97239816941496
148.37170213529984
145.92013543197518
144.46454052139572
143.90176476302744
144.18162745315044
145.30816409328227
147.33946256341454
150.38627633910815
154.60939645301872
160.21571683508674
167.45276037469674
176.60144212391012
187.96690049439212
201.86731165641396
218.6209248207961
238.53133460221713
261.8720648136317
288.8706033912824
319.6931768101422
354.43102734843796
306.9788432123305
279.63596458094594
255.5639120295739
234.6979149728886
216.90025656711305
201.9721520289573
189.66892119508043
179.71663327694458
171.82945139646807
165.72566827378898
161.14227791245906
157.84691714292362
155.6472771857139
154.3978661731225
154.00440443296955
154.42634383339848
155.67780908497048
157.8272931425936
160.99624209062029
165.35650139203625
171.126439784997
178.56551735862104
187.96689383528962
199.6479622494171
213.93861019033048
231.16732724860128
251.645573854265
275.65084502790387
303.409471303171
335.07998464631515
370.7382192530888
311.52611505791594
285.01568806102404
261.7878471255237
241.75744171655586
224.76648172525623
210.59825072853275
198.9936632758955
189.66890703451577
182.33272610179253
176.70232676363247
172.51753835558145
169.5520645976103
167.62213780586674
166.59246161706247
166.38002413499527
166.95612583716408
168.34703817799272
170.63358922995445
173.94973142087497
178.48003216822696
184.45581048327944
192.14956473796843
201.86732399656316
213.93859976599262
228.7039061076657
246.49968366683026
267.6414924235411
292.40566131974197
321.01075665816165
353.5999180704443
390.22513852970786
317.5251180885361
292.0232945168845
269.80649120224695
250.76310012697354
234.71095401738276
221.41372053537913
210.59823579665928
201.9721455508392
195.24074267843798
190.12296218652256
186.36453307291953
183.74840572142003
182.1023590599535
181.3040982100347
181.28441166342074
182.02873575265806
183.57757667612833
186.02598874833262
189.52213922890527
194.26477237088454
200.49926239453595
208.51173361746092
218.6209162579846
231.1673292412821
246.4996780596377
264.9586921106947
286.85875668231404
312.4683884428474
341.99057989157484
375.5444920664234
413.1497968720882
325.24616995774943
300.9471364534141
279.9187334350154
262.0168212548096
247.03263987437128
234.71096209376321
224.76647483547322
216.90022297635764
210.81731500384862
206.24208280648588
202.92998074864659
200.67679989151262
199.32510354071968
198.76850071655838
198.95412801482783
199.88381189806324
201.61428446848586
204.25657003972
207.9745036652251
212.98209092665655
219.53927499983251
227.9456071037092
238.53132121232343
251.64556674535262
267.641477848411
286.8587474267234
309.6038997301204
336.12965945627815
366.614733964988
401.1455339796013
439.7016480458998
334.97854803849
312.08904724063177
292.42878024904513
275.8156713367987
262.01688880151073
250.76311367717358
241.75746699090791
234.69792920071805
229.2940782061682
225.28020798397057
222.42578702080888
220.54322154194077
219.49317551877346
219.18799847011294
219.59360175412945
220.73029030229978
222.67278660416957
225.54952216529125
229.5410203768638
234.87702433433816
241.8317839144602
250.7170314942279
261.8720944598262
275.6508629280772
292.4056784989084
312.46840783427797
336.1297014814502
363.61757435983566
395.0771249846727
430.5535172226281
469.98048204391404
347.02146396008004
325.7538885114286
307.62885121116796
292.42875505832615
279.9187787154187
269.80651624368545
261.7878818138111
255.56394199892915
250.85443803786671
247.4087714758414
245.01484410362488
243.50539908193375
242.76234594891434
242.71937989515428
243.36336028202436
244.73484747698538
246.92794938132343
250.08945660803886
254.41698067514923
260.1556302525243
267.5926547134776
277.0494607081751
288.8706249918475
303.4094799390843
321.0107800639064
341.9905973190403
366.6147541279983
395.0771190864829
427.47952568395146
463.81722765360456
503.9753900530991
361.6822416451325
342.2461355631405
325.7538656568642
312.08903243376153
300.94716694254083
292.023335519423
285.015673044707
279.63596082709495
275.6202155068699
272.7380585363789
270.8000033116672
269.6625817063806
269.2317296017193
269.4647142436188
270.3711062661383
272.0130404421497
274.5048595299599
278.01198088832655
282.74863593626645
288.9738874397635
296.98540137410697
307.11036579347734
319.6931946534649
335.079987307713
353.5999275715366
375.54450484875184
401.1455487739099
430.553514178034
463.8172186098723
500.8649737539862
541.5372692859669
379.4142631493498
361.6822129623968
347.0214475408178
334.97854772286166
325.2461655221258
317.5251215012344
311.526114603788
306.9788565361686
303.6414054640316
301.3082269400748
299.8161208993739
299.0483330216433
298.93707965527074
299.4649147504815
300.66533076383854
302.62274057475145
305.4718356469181
309.39604557323406
314.6246515579395
321.4279864603808
330.1101207439196
340.9986345292724
354.43102951528425
370.7382084950846
390.2251277628211
413.14978889236056
439.70165500249624
469.980468140046
503.97536647750644
541.5372537660547
582.106192993896
