# vtk DataFile Version 2.0
Unstructured Grid Example
ASCII
DATASET UNSTRUCTURED_GRID

POINTS 961 float
0.150000006 -0.00839745998 0
0.146666661 -0.00839745998 0
0.143333331 -0.00839745998 0
0.140000001 -0.00839745998 0
0.13666667 -0.00839745998 0
0.13333334 -0.00839745998 0
0.129999995 -0.00839745998 0
0.126666665 -0.00839745998 0
0.123333335 -0.00839745998 0
0.119999997 -0.00839745998 0
0.116666667 -0.00839745998 0
0.113333337 -0.00839745998 0
0.109999999 -0.00839745998 0
0.106666669 -0.00839745998 0
0.103333332 -0.00839745998 0
0.100000001 -0.00839745998 0
0.0966666639 -0.00839745998 0
0.0933333337 -0.00839745998 0
0.0900000036 -0.00839745998 0
0.086666666 -0.00839745998 0
0.0833333358 -0.00839745998 0
0.0799999982 -0.00839745998 0
0.0766666681 -0.00839745998 0
0.0733333305 -0.00839745998 0
0.0700000003 -0.00839745998 0
0.0666666701 -0.00839745998 0
0.0633333325 -0.00839745998 0
0.0599999987 -0.00839745998 0
0.0566666685 -0.00839745998 0
0.0533333346 -0.00839745998 0
0.0500000007 -0.00839745998 0
0.148333326 -0.0112842107 0
0.144999996 -0.0112842107 0
0.141666666 -0.0112842107 0
0.138333336 -0.0112842107 0
0.135000005 -0.0112842107 0
0.13166666 -0.0112842107 0
0.12833333 -0.0112842107 0
0.125 -0.0112842107 0
0.12166667 -0.0112842107 0
0.118333332 -0.0112842107 0
0.115000002 -0.0112842107 0
0.111666664 -0.0112842107 0
0.108333334 -0.0112842107 0
0.104999997 -0.0112842107 0
0.101666667 -0.0112842107 0
0.0983333364 -0.0112842107 0
0.0949999988 -0.0112842107 0
0.0916666687 -0.0112842107 0
0.088333331 -0.0112842107 0
0.0850000009 -0.0112842107 0
0.0816666633 -0.0112842107 0
0.0783333331 -0.0112842107 0
0.075000003 -0.0112842107 0
0.0716666654 -0.0112842107 0
0.0683333352 -0.0112842107 0
0.0649999976 -0.0112842107 0
0.0616666675 -0.0112842107 0
0.0583333336 -0.0112842107 0
0.0549999997 -0.0112842107 0
0.0516666658 -0.0112842107 0
0.0483333319 -0.0112842107 0
0.146666661 -0.0141709624 0
0.143333331 -0.0141709624 0
0.140000001 -0.0141709624 0
0.13666667 -0.0141709624 0
0.13333334 -0.0141709624 0
0.129999995 -0.0141709624 0
0.126666665 -0.0141709624 0
0.123333335 -0.0141709624 0
0.119999997 -0.0141709624 0
0.116666667 -0.0141709624 0
0.113333337 -0.0141709624 0
0.109999999 -0.0141709624 0
0.106666669 -0.0141709624 0
0.103333332 -0.0141709624 0
0.100000001 -0.0141709624 0
0.0966666639 -0.0141709624 0
0.0933333337 -0.0141709624 0
0.0900000036 -0.0141709624 0
0.086666666 -0.0141709624 0
0.0833333358 -0.0141709624 0
0.0799999982 -0.0141709624 0
0.0766666681 -0.0141709624 0
0.0733333305 -0.0141709624 0
0.0700000003 -0.0141709624 0
0.0666666701 -0.0141709624 0
0.0633333325 -0.0141709624 0
0.0599999987 -0.0141709624 0
0.0566666685 -0.0141709624 0
0.0533333346 -0.0141709624 0
0.0500000007 -0.0141709624 0
0.0466666669 -0.0141709624 0
0.144999996 -0.0170577131 0
0.141666666 -0.0170577131 0
0.138333336 -0.0170577131 0
0.135000005 -0.0170577131 0
0.13166666 -0.0170577131 0
0.12833333 -0.0170577131 0
0.125 -0.0170577131 0
0.12166667 -0.0170577131 0
0.118333332 -0.0170577131 0
0.115000002 -0.0170577131 0
0.111666664 -0.0170577131 0
0.108333334 -0.0170577131 0
0.104999997 -0.0170577131 0
0.101666667 -0.0170577131 0
0.0983333364 -0.0170577131 0
0.0949999988 -0.0170577131 0
0.0916666687 -0.0170577131 0
0.088333331 -0.0170577131 0
0.0850000009 -0.0170577131 0
0.0816666633 -0.0170577131 0
0.0783333331 -0.0170577131 0
0.075000003 -0.0170577131 0
0.0716666654 -0.0170577131 0
0.0683333352 -0.0170577131 0
0.0649999976 -0.0170577131 0
0.0616666675 -0.0170577131 0
0.0583333336 -0.0170577131 0
0.0549999997 -0.0170577131 0
0.0516666658 -0.0170577131 0
0.0483333319 -0.0170577131 0
0.0450000018 -0.0170577131 0
0.143333331 -0.0199444648 0
0.140000001 -0.0199444648 0
0.13666667 -0.0199444648 0
0.13333334 -0.0199444648 0
0.129999995 -0.0199444648 0
0.126666665 -0.0199444648 0
0.123333335 -0.0199444648 0
0.119999997 -0.0199444648 0
0.116666667 -0.0199444648 0
0.113333337 -0.0199444648 0
0.109999999 -0.0199444648 0
0.106666669 -0.0199444648 0
0.103333332 -0.0199444648 0
0.100000001 -0.0199444648 0
0.0966666639 -0.0199444648 0
0.0933333337 -0.0199444648 0
0.0900000036 -0.0199444648 0
0.086666666 -0.0199444648 0
0.0833333358 -0.0199444648 0
0.0799999982 -0.0199444648 0
0.0766666681 -0.0199444648 0
0.0733333305 -0.0199444648 0
0.0700000003 -0.0199444648 0
0.0666666701 -0.0199444648 0
0.0633333325 -0.0199444648 0
0.0599999987 -0.0199444648 0
0.0566666685 -0.0199444648 0
0.0533333346 -0.0199444648 0
0.0500000007 -0.0199444648 0
0.0466666669 -0.0199444648 0
0.043333333 -0.0199444648 0
0.141666666 -0.0228312165 0
0.138333336 -0.0228312165 0
0.135000005 -0.0228312165 0
0.13166666 -0.0228312165 0
0.12833333 -0.0228312165 0
0.125 -0.0228312165 0
0.12166667 -0.0228312165 0
0.118333332 -0.0228312165 0
0.115000002 -0.0228312165 0
0.111666664 -0.0228312165 0
0.108333334 -0.0228312165 0
0.104999997 -0.0228312165 0
0.101666667 -0.0228312165 0
0.0983333364 -0.0228312165 0
0.0949999988 -0.0228312165 0
0.0916666687 -0.0228312165 0
0.088333331 -0.0228312165 0
0.0850000009 -0.0228312165 0
0.0816666633 -0.0228312165 0
0.0783333331 -0.0228312165 0
0.075000003 -0.0228312165 0
0.0716666654 -0.0228312165 0
0.0683333352 -0.0228312165 0
0.0649999976 -0.0228312165 0
0.0616666675 -0.0228312165 0
0.0583333336 -0.0228312165 0
0.0549999997 -0.0228312165 0
0.0516666658 -0.0228312165 0
0.0483333319 -0.0228312165 0
0.0450000018 -0.0228312165 0
0.0416666679 -0.0228312165 0
0.140000001 -0.0257179681 0
0.13666667 -0.0257179681 0
0.13333334 -0.0257179681 0
0.129999995 -0.0257179681 0
0.126666665 -0.0257179681 0
0.123333335 -0.0257179681 0
0.119999997 -0.0257179681 0
0.116666667 -0.0257179681 0
0.113333337 -0.0257179681 0
0.109999999 -0.0257179681 0
0.106666669 -0.0257179681 0
0.103333332 -0.0257179681 0
0.100000001 -0.0257179681 0
0.0966666639 -0.0257179681 0
0.0933333337 -0.0257179681 0
0.0900000036 -0.0257179681 0
0.086666666 -0.0257179681 0
0.0833333358 -0.0257179681 0
0.0799999982 -0.0257179681 0
0.0766666681 -0.0257179681 0
0.0733333305 -0.0257179681 0
0.0700000003 -0.0257179681 0
0.0666666701 -0.0257179681 0
0.0633333325 -0.0257179681 0
0.0599999987 -0.0257179681 0
0.0566666685 -0.0257179681 0
0.0533333346 -0.0257179681 0
0.0500000007 -0.0257179681 0
0.0466666669 -0.0257179681 0
0.043333333 -0.0257179681 0
0.0399999991 -0.0257179681 0
0.138333336 -0.0286047198 0
0.135000005 -0.0286047198 0
0.13166666 -0.0286047198 0
0.12833333 -0.0286047198 0
0.125 -0.0286047198 0
0.12166667 -0.0286047198 0
0.118333332 -0.0286047198 0
0.115000002 -0.0286047198 0
0.111666664 -0.0286047198 0
0.108333334 -0.0286047198 0
0.104999997 -0.0286047198 0
0.101666667 -0.0286047198 0
0.0983333364 -0.0286047198 0
0.0949999988 -0.0286047198 0
0.0916666687 -0.0286047198 0
0.088333331 -0.0286047198 0
0.0850000009 -0.0286047198 0
0.0816666633 -0.0286047198 0
0.0783333331 -0.0286047198 0
0.075000003 -0.0286047198 0
0.0716666654 -0.0286047198 0
0.0683333352 -0.0286047198 0
0.0649999976 -0.0286047198 0
0.0616666675 -0.0286047198 0
0.0583333336 -0.0286047198 0
0.0549999997 -0.0286047198 0
0.0516666658 -0.0286047198 0
0.0483333319 -0.0286047198 0
0.0450000018 -0.0286047198 0
0.0416666679 -0.0286047198 0
0.038333334 -0.0286047198 0
0.13666667 -0.0314914696 0
0.13333334 -0.0314914696 0
0.129999995 -0.0314914696 0
0.126666665 -0.0314914696 0
0.123333335 -0.0314914696 0
0.119999997 -0.0314914696 0
0.116666667 -0.0314914696 0
0.113333337 -0.0314914696 0
0.109999999 -0.0314914696 0
0.106666669 -0.0314914696 0
0.103333332 -0.0314914696 0
0.100000001 -0.0314914696 0
0.0966666639 -0.0314914696 0
0.0933333337 -0.0314914696 0
0.0900000036 -0.0314914696 0
0.086666666 -0.0314914696 0
0.0833333358 -0.0314914696 0
0.0799999982 -0.0314914696 0
0.0766666681 -0.0314914696 0
0.0733333305 -0.0314914696 0
0.0700000003 -0.0314914696 0
0.0666666701 -0.0314914696 0
0.0633333325 -0.0314914696 0
0.0599999987 -0.0314914696 0
0.0566666685 -0.0314914696 0
0.0533333346 -0.0314914696 0
0.0500000007 -0.0314914696 0
0.0466666669 -0.0314914696 0
0.043333333 -0.0314914696 0
0.0399999991 -0.0314914696 0
0.0366666652 -0.0314914696 0
0.135000005 -0.0343782231 0
0.13166666 -0.0343782231 0
0.12833333 -0.0343782231 0
0.125 -0.0343782231 0
0.12166667 -0.0343782231 0
0.118333332 -0.0343782231 0
0.115000002 -0.0343782231 0
0.111666664 -0.0343782231 0
0.108333334 -0.0343782231 0
0.104999997 -0.0343782231 0
0.101666667 -0.0343782231 0
0.0983333364 -0.0343782231 0
0.0949999988 -0.0343782231 0
0.0916666687 -0.0343782231 0
0.088333331 -0.0343782231 0
0.0850000009 -0.0343782231 0
0.0816666633 -0.0343782231 0
0.0783333331 -0.0343782231 0
0.075000003 -0.0343782231 0
0.0716666654 -0.0343782231 0
0.0683333352 -0.0343782231 0
0.0649999976 -0.0343782231 0
0.0616666675 -0.0343782231 0
0.0583333336 -0.0343782231 0
0.0549999997 -0.0343782231 0
0.0516666658 -0.0343782231 0
0.0483333319 -0.0343782231 0
0.0450000018 -0.0343782231 0
0.0416666679 -0.0343782231 0
0.038333334 -0.0343782231 0
0.0350000001 -0.0343782231 0
0.13333334 -0.0372649729 0
0.129999995 -0.0372649729 0
0.126666665 -0.0372649729 0
0.123333335 -0.0372649729 0
0.119999997 -0.0372649729 0
0.116666667 -0.0372649729 0
0.113333337 -0.0372649729 0
0.109999999 -0.0372649729 0
0.106666669 -0.0372649729 0
0.103333332 -0.0372649729 0
0.100000001 -0.0372649729 0
0.0966666639 -0.0372649729 0
0.0933333337 -0.0372649729 0
0.0900000036 -0.0372649729 0
0.086666666 -0.0372649729 0
0.0833333358 -0.0372649729 0
0.0799999982 -0.0372649729 0
0.0766666681 -0.0372649729 0
0.0733333305 -0.0372649729 0
0.0700000003 -0.0372649729 0
0.0666666701 -0.0372649729 0
0.0633333325 -0.0372649729 0
0.0599999987 -0.0372649729 0
0.0566666685 -0.0372649729 0
0.0533333346 -0.0372649729 0
0.0500000007 -0.0372649729 0
0.0466666669 -0.0372649729 0
0.043333333 -0.0372649729 0
0.0399999991 -0.0372649729 0
0.0366666652 -0.0372649729 0
0.0333333351 -0.0372649729 0
0.13166666 -0.0401517227 0
0.12833333 -0.0401517227 0
0.125 -0.0401517227 0
0.12166667 -0.0401517227 0
0.118333332 -0.0401517227 0
0.115000002 -0.0401517227 0
0.111666664 -0.0401517227 0
[...]
POINT_DATA 961
SCALARS Temp float 1
LOOKUP_TABLE default
398.7473970725241
349.88888196441854
309.48506212437184
278.21449975696254
255.2038664238728
239.0863947940072
228.33051500211448
221.4836285387758
217.3195627154674
214.895657494111
213.54242925243284
212.81628400966605
212.44093976541964
212.2536519507142
212.1632872808739
212.12116650109425
212.10254870668993
212.09585968819547
212.0973021662668
212.10945817144284
212.14383815020216
212.22868771543153
212.42477096859008
212.85259899573055
213.73341520312323
215.44183975619126
218.55939329253397
223.90787969294476
232.53704434953863
245.6553904352074
264.7751464428383
349.8888970945427
302.92088890118816
265.7335188344253
237.60590831732767
217.345419843039
203.4407255533179
194.34083479125078
188.6545003769144
185.25627781517255
183.3104124756807
182.24060893162945
181.67468138808178
181.3860057857818
181.24373557583903
181.17592475473765
181.14483502772453
181.1317761504593
181.1287233105504
181.13469737094672
181.15611539025875
181.2116752238532
181.34380244920598
181.63988290815655
182.2665169888751
183.51748998849334
185.8695730647746
190.0300908505129
196.95083938165737
207.7818420073181
223.76081710946596
245.65540992628567
309.4850174131963
265.73349889106277
231.62056388049143
206.21082151761368
188.14584924026857
175.88720647495282
167.94177489584834
163.01712550831905
160.0938522482988
158.4290644894143
157.51773222438493
157.03723679840266
156.79275442181265
156.67250692603488
156.61535362833712
156.58944024783233
156.5793382550621
156.57924402395278
156.5906991279474
156.62455614026746
156.70829287954524
156.90119780770448
157.3207469438761
158.18257154091788
159.85232295417265
162.8995157210683
168.13279863346418
176.5880316347218
189.4403087601517
207.78183256265058
232.5370540207312
278.21444587909747
237.60588071235154
206.21082318820075
182.9871289539369
166.56009867325886
155.45006485130943
148.26200922418414
143.80911620317733
141.16453263720982
139.6564839759151
138.82937679307395
138.39228183458013
138.16931903682203
138.05939941345548
138.00714076989792
137.98375412950332
137.97564965005267
137.97871010103393
137.99712132716638
138.04688367015032
138.16553378007043
138.43080811039624
138.99122990166828
140.10970420707068
142.21578386466095
145.95319909428267
152.19935009411978
162.0277029111053
176.58804659841115
196.95085232116782
223.90787125716315
255.2038194194376
217.34539612203972
188.14583712547014
166.56015858758994
151.27912436261417
140.923616497826
134.2047934880219
130.02854555368697
127.53916901006134
126.1142569844318
125.3298210520073
124.91378570051708
124.70086167961398
124.59561990532724
124.54561487331429
124.52366553837493
124.51737125727557
124.52416573060168
124.55111823779474
124.61990832390858
124.77873080779766
125.12380263680284
125.832803247882
127.20980999221221
129.73507545024927
134.1040721386851
141.23204411216366
152.19934363364976
168.13279424346524
190.03008891632751
218.55939932354175
239.086349241213
203.44075774860391
175.88724907706805
155.45003554334488
140.92360528043668
131.0363578821653
124.59299042997903
120.57085319565216
118.16376202442818
116.78091616761206
116.01714851290967
115.61090406799694
115.40248850311296
115.2993282590788
115.25044699703913
115.22956896477166
115.22522146180962
115.23640186715762
115.27322975835392
115.3632131663948
115.564929082649
115.99151202166377
116.84550360705018
118.4632527610365
121.36065994625459
126.26406910313355
134.1040695158149
145.95320034187236
162.89952267205783
185.86955238631114
215.44183314593363
228.3305224091247
194.34085570138492
167.9418179139774
148.26197492287525
134.2047805354264
124.59298733974737
118.30332252178881
114.36300860708877
111.99758363997925
110.63511042726984
109.88094092696385
109.47907574275743
109.27262913919016
109.17041837191772
109.1222196215785
109.10234936403324
109.10017020872966
109.1162512371444
109.16374464635075
109.27568329725183
109.5199146827558
110.02369574669149
111.00877002958923
112.83414139172531
116.03767785163376
121.36065671164228
129.73506848249366
142.21577360265235
159.8523209443365
183.51748772351365
213.73342404652846
221.48364314104316
188.6545259190661
163.0170721651262
143.80908655515094
130.02854416980128
120.57086223011476
114.36300653475124
110.4642162292609
108.11900197831453
106.76600573436518
106.01612524379627
105.61615727000935
105.410566276857
105.30884180390905
105.26117924027643
105.24235165999484
105.24250876355433
105.26372802812269
105.32195893077788
105.45505277270064
105.73843575676253
106.31009528139936
107.40515465823277
109.39672566346705
112.83413973595732
118.4632504629141
127.20981139665643
140.10970529073995
158.1825575243751
182.26649796491355
212.8525891268177
217.31956975587846
185.25631055990115
160.0938076232879
141.16451508242687
127.53917073877078
118.16375389907728
111.99758193477197
108.11900753588172
105.78322189277395
104.43447042898174
103.6864447797133
103.2872826992455
103.08208176457072
102.98066702506422
102.93350300702102
102.91575273953599
102.91828912741995
102.94454406337054
103.01285124716031
103.16492067715177
103.48183937462278
104.10899232356444
105.2898495072564
107.40515618964665
111.00877030978002
116.84550284068952
125.83280194432673
138.99122583491658
157.32075060298402
181.63988953976065
212.42478970126598
214.89569272099257
183.31034867679247
158.4290422623391
139.65648091360654
126.11426894857497
116.78091528589684
110.63511506296378
106.76600462535505
104.43446951317449
103.08755696810228
102.34031713838469
101.94150270636739
101.73650869183193
101.63534184553119
101.5886653259439
101.57198090043755
101.57679123370276
101.60765623490097
101.68478195564332
101.85271248600132
102.19638946101998
102.8657972182179
104.10899126756966
106.31009495992443
110.02369556640451
115.99151158006582
125.12380253571308
138.43079178222683
156.90118344300026
181.3437857920279
212.22867907046273
213.54248753523186
182.24055929447246
157.51772047145624
138.82938211069634
125.3298119881474
116.01714983289824
109.88094733315063
106.01612543692822
103.68644608738211
102.3403170471617
101.5934128405444
101.1947659049104
100.98991480062601
100.88897593141016
100.84277046039286
100.82708378038994
100.83393116959904
100.86874163659677
100.95307376584185
101.13337587182698
101.49697087649433
102.19639048685166
103.48183971136757
105.73843477585399
109.51991308032117
115.56492786267621
124.7787279848366
138.16553209803283
156.70829791204014
181.21168372297709
212.1438248503389
212.81622440730487
181.6746492133125
157.0372350306679
138.3922939775985
124.9137780238256
115.61090760566688
109.47907216704535
105.6161579722481
103.28728036575981
101.94150270847368
101.19476663173374
100.79623314071162
100.59151351755953
100.49079905721578
100.44503598142528
100.43023361756009
100.43879484180708
100.47676677200639
100.56660552900199
100.75592677581834
101.13337662359551
101.85271305484119
103.1649202228296
105.45505479003826
109.27568638742524
115.36321893841772
124.61990390847005
138.04687813191308
156.62455727253504
181.15611710084403
212.10947212303284
212.44091226225865
181.38600083396284
156.79277184471067
138.1693069510262
124.70086373203739
115.40249939232037
109.27262839603226
105.41056946486063
103.08208062384598
101.73650942060902
100.98991438485852
100.59151328134305
100.3869519440921
100.28647513561157
100.24112316693193
100.22707135562825
100.23699454048285
100.27734593493587
100.37112779692703
100.56660497605974
100.95307358164109
101.68478276041706
103.01284951460742
105.32195825394248
109.1637434193034
115.27322775816455
124.55111667853238
137.99711981940348
156.59070558976947
181.134674791646
212.09730584513667
212.25362992483042
181.2437346610906
156.67252964936785
138.05938834524557
124.59562347135491
115.29932180669921
109.1704187615745
105.30883940928312
102.9806663026427
101.63534296866361
100.88897541250047
100.49079902927416
100.28647507978391
100.18628320191682
100.141329414626
100.12790531703503
100.13886454447655
100.18090859836728
100.27734585385882
100.47676691758178
100.86874155714243
101.60765673471866
102.94454390577113
105.26372985888
109.11625455475158
115.23639900401965
124.52416190515656
137.97870545229193
156.57924518070575
181.1287270670817
212.0958589970518
212.16328652446973
181.17594383711156
156.61534050799787
138.0071414260316
124.54562901776707
115.25044546795584
109.12222479986055
105.26117867722084
102.93350296627261
101.58866508733888
100.84277044456725
100.44503614945182
100.24112311054277
100.14132947227439
100.0968077481666
100.08393019121498
100.09566646690256
100.13886449561551
100.23699440631331
100.43879464735524
100.83393119569334
101.57679088110417
102.91828750341284
105.24250811980318
109.1001688618371
115.22522058414785
124.51737051051639
137.97564931421127
156.57932286895596
181.13177237418873
212.10254051624798
212.1211670438838
181.14485698691655
156.58942796116227
137.98375707371727
124.52365508313937
115.22956873053853
109.10234489502741
105.24235187886983
102.91575356528813
101.57198064209564
100.82708386628657
100.43023320408038
100.22707137159485
100.12790523001827
100.08393019239494
100.07158626972169
100.08393021496443
100.12790526387079
100.22707151120258
100.43023338802335
100.82708364515986
101.5719814642371
102.91575271463766
105.24235375633812
109.10234745616587
115.22956646580346
124.52366315383416
137.9837499404756
156.5894447142517
181.14482547174777
212.12116871431274
212.1025701220249
181.1317529303013
156.57934467918216
137.9756675285007
124.51736807685607
115.22522859245746
109.10016907831564
105.24251052056817
102.91828749707841
101.57679180940492
100.83393182002327
100.43879463774925
100.23699473180494
100.13886452164111
100.09566648933345
100.08393023227266
100.09680778474251
100.14132936597224
100.24112316450405
100.44503585923559
100.84276996729209
101.58866508024846
102.93350149981167
105.2611783984239
109.12221932027738
115.2504466904486
124.54561526865442
138.00712379131792
156.6153508260942
181.17590845857265
212.16327914387276
212.09589120654763
181.12870573628683
156.5792543902338
137.97869319974617
124.52416471561126
115.2363945516936
109.1162512708719
105.26373114166316
102.9445424074356
101.60765711205451
100.86874120147033
100.47676664809144
100.27734578202013
100.18090854795652
100.1388645843476
100.12790532930931
100.14132942823402
100.18628326940073
100.28647516658201
100.49079889775476
100.88897583168111
101.63534241336764
102.98066728995082
105.30884072951599
109.17041690975398
115.29932642037245
124.59561694939833
138.05939785224353
156.6724987680101
181.2437269204627
212.25365310824913
212.09726937363894
181.1346872151189
156.59071582162838
137.9971055246683
124.5511206590435
115.27322289021353
109.16374402954534
105.32195621338849
103.0128499741862
101.68478321978051
100.95307317903614
100.56660538513229
100.3711277128904
100.27734588106347
100.23699453268578
100.22707135037098
100.24112312805264
100.28647519424814
100.38695185851972
100.59151318151076
100.98991466651302
101.73650913141776
103.08208141734235
105.41056767905756
109.27263179701353
115.40249393200111
124.70085679059956
138.16932161838236
156.79275401220505
181.38600588194342
212.44095005544727
212.10945085582566
181.15612792799337
156.62453905449402
138.0468811772445
124.61989670070132
115.36321363563228
109.27568833640984
105.45505227876473
103.1649208889579
101.85271243230068
101.13337614353978
100.75592663849267
100.56660542226125
100.4767668693629
100.43879486424593
100.43023362123644
100.44503601013453
100.49079909162366
100.59151343901532
100.79623334232411
101.19476628523958
101.94150319825819
103.28728097166099
105.61615657229449
109.4790746295245
115.61090244907565
124.9137838846373
138.39227002665854
157.0372293954533
181.67467256479728
212.8162846806191
212.1438340104598
181.21169312446523
156.70827687194128
138.16553676970008
124.77872050511317
115.5649287795988
109.51990978423578
105.73843559500865
103.48184054351923
102.19638979311449
101.49697164934328
101.13337575295098
100.95307367381308
100.86874160931536
100.83393112726615
100.82708378189417
100.84277051518147
100.88897587521116
100.98991476091886
101.19476603858924
101.59341264172085
102.34031743108653
103.68644490361
106.0161273774484
109.88094356224894
116.0171451714136
125.32982284218309
138.82937143948595
157.51773167902616
182.24060905452825
213.54242603897893
212.22868473487785
181.34375858530146
156.90118666854812
138.430781347788
125.12379482520441
115.99151463085228
110.02369172512533
106.31009614671562
104.10899028526234
102.86579643725378
102.19638922355733
101.85271227492524
101.68478215306982
101.60765631774362
101.57679124334842
101.57198091058031
101.58866532964807
101.63534180012334
101.73650879034722
101.94150251510193
102.34031741691305
103.0875572531042
104.43446867783923
106.76600617731509
110.63511200170876
116.78092026391704
126.11425426189005
139.65648244357348
158.4290726483482
183.3104236719469
214.89567420817886
212.42481747389053
181.63988058667877
157.32077144588578
138.99122676088248
125.8328119341145
116.84550419784473
111.00877645087004
107.40516132795494
105.28985144758255
104.1089963680936
103.48184173266769
103.16492291196418
103.01285350549979
102.94454623269746
102.9182914472377
102.91575511207023
102.93350520844173
102.98066929094877
103.08208403471127
103.28728467750105
103.68644693848732
104.43447143539976
105.78322431300971
108.1190058252337
111.99757899801493
118.16376040159325
127.53916182766952
141.16452212106898
160.09384545423922
185.2562492338233
217.31954481677502
212.85258217726746
182.26652309447388
158.18255954680492
140.10970711553216
127.2098254326864
118.46325244390304
112.83414772745472
109.39672933474287
107.40515802178831
106.31009910531515
105.73843939292982
105.45505708030163
105.32196307957399
105.26373196116808
105.2425126452884
105.2423555022346
105.26118307755833
105.30884569739521
105.41056999036732
105.61616121918455
106.01612892736476
106.7660086342816
108.11900591997988
110.4642168020401
114.36301162534055
120.57085310240747
130.02854519459837
143.80910730178255
163.01712298922666
188.65449365011193
221.48362703613546
213.7334085620425
183.51750687143775
159.85231652199036
142.21578325645984
129.73506748022368
121.36066373530377
116.0376842240607
112.83414335331649
111.0087755901568
110.02369894864135
109.51991768565507
109.27568632350649
109.16374747932475
109.11625443882845
109.10017353562338
109.10235238849725
109.1222228659402
109.17042155608326
109.27263214099382
109.47907894937144
109.88094363541272
110.63511411718899
111.99758516269675
114.36301021938972
118.30333089739055
124.59298635774987
134.20479184385331
148.26200935537852
167.94177111161085
194.34083255185652
228.33052436089147
215.44184108694
185.8695369705377
162.89951080093994
145.95320753672704
134.10406298551365
126.26407245699691
121.36065829429948
118.46325132435877
116.8455031302375
115.99151140248458
115.5649297304944
115.36321375969801
115.2732299466301
115.23640193555745
115.22522144621146
115.22956904403406
115.25044711931459
115.29932834662017
115.40248891057982
115.61090419291732
116.01714854474271
116.78091715322248
118.16376145142863
120.5708562066748
124.59298508846949
131.03636057182908
140.92362305714693
155.4500755983796
175.88722014910851
203.4407348172124
239.08635123506127
218.55939726170135
190.03006321456306
168.13278911437038
152.19932686151688
141.23203945905897
134.10406774261804
129.7350656236633
127.20980565719928
125.83279601725252
125.12379515222575
124.77872333592822
124.61990048081356
124.55111108230805
124.52415881899888
124.5173638415254
124.52365855080062
124.54560773555332
124.59561260015282
124.70085460501508
124.91377851426263
125.32981452406551
126.11424932590565
127.53916226678089
130.02854337892293
134.20478532607245
140.9236173025641
151.279141479754
166.56010925521056
188.14580118688383
217.34537303776546
255.20381832255305
223.90788326576074
196.95086624106824
176.5880814936664
162.02771921533656
152.19937707932482
145.9532186886161
142.21580310695586
140.10972419510094
138.99124941658286
138.43082939676881
138.1655550761262
138.0469042912229
137.99714170376606
137.97873031281105
137.97567009816038
137.98377457190546
138.00716122834868
138.05942023021564
138.16933929853636
138.39230216648303
138.8293975553488
139.65650335152242
141.16455352313136
143.80913038017172
148.26202704205465
155.45009038265417
166.56013565645281
182.987101902266
206.21078892086632
237.6058521745528
278.2144501781091
232.53706457297244
207.78186539123715
189.44032470780985
176.58805940221734
168.13282515267
162.89953460405505
159.85234798960752
158.18259291056063
157.32076783300897
156.90121857345045
156.70831295141122
156.6245771526331
156.59072050072734
156.57926474049438
156.5793595925035
156.58946131849632
156.61537446959213
156.67252790837148
156.79277538048458
157.0372579396416
157.51775224102045
158.42908515581288
160.09387485588996
163.01714198500866
167.94179541070855
175.8872347117753
188.14581714194722
206.21079037474587
231.62052880997015
265.73346717709154
309.48501553956686
245.65541261904667
223.7608406495407
207.78184485147446
196.9508542499858
190.03009784057264
185.86957992160694
183.51749781044
182.26652440358413
181.63989275955532
181.3438122720287
181.2116840661003
181.15612396767327
181.13470575020642
181.1287321604513
181.13178490317034
181.14484383830572
181.17593396735754
181.24374406219036
181.3860146171857
181.6746905357901
182.2406170996003
183.31042161001014
185.25628214684718
188.65450739404014
194.34084685226054
203.4407452855762
217.34538230772668
237.6058582842692
265.73346060850264
302.9208327757293
349.8888030789741
264.7751628595292
245.65538489326426
232.53705092131602
223.90788527589916
218.55939039083523
215.44184370914545
213.73341501389945
212.8525994913034
212.4247712750123
212.2286861858604
212.14383806852322
212.109458314184
212.0973021263432
212.09586009018935
212.10254879568947
212.12116659171994
212.1632868339228
212.2536522315012
212.44093986699087
212.81628318236295
213.54242916479092
214.895659114403
217.31955985458373
221.48362810593443
228.33051863810525
239.08634594443578
255.2038182306503
278.21444093007835
309.48499196832154
349.8887851750802
398.7469856123591
