# vtk DataFile Version 2.0
Unstructured Grid Example
ASCII
DATASET UNSTRUCTURED_GRID

POINTS 961 float
0.150000006 -0.00839745998 0
0.146666661 -0.00839745998 0
0.143333331 -0.00839745998 0
0.140000001 -0.00839745998 0
0.13666667 -0.00839745998 0
0.13333334 -0.00839745998 0
0.129999995 -0.00839745998 0
0.126666665 -0.00839745998 0
0.123333335 -0.00839745998 0
0.119999997 -0.00839745998 0
0.116666667 -0.00839745998 0
0.113333337 -0.00839745998 0
0.109999999 -0.00839745998 0
0.106666669 -0.00839745998 0
0.103333332 -0.00839745998 0
0.100000001 -0.00839745998 0
0.0966666639 -0.00839745998 0
0.0933333337 -0.00839745998 0
0.0900000036 -0.00839745998 0
0.086666666 -0.00839745998 0
0.0833333358 -0.00839745998 0
0.0799999982 -0.00839745998 0
0.0766666681 -0.00839745998 0
0.0733333305 -0.00839745998 0
0.0700000003 -0.00839745998 0
0.0666666701 -0.00839745998 0
0.0633333325 -0.00839745998 0
0.0599999987 -0.00839745998 0
0.0566666685 -0.00839745998 0
0.0533333346 -0.00839745998 0
0.0500000007 -0.00839745998 0
0.148333326 -0.0112842107 0
0.144999996 -0.0112842107 0
0.141666666 -0.0112842107 0
0.138333336 -0.0112842107 0
0.135000005 -0.0112842107 0
0.13166666 -0.0112842107 0
0.12833333 -0.0112842107 0
0.125 -0.0112842107 0
0.12166667 -0.0112842107 0
0.118333332 -0.0112842107 0
0.115000002 -0.0112842107 0
0.111666664 -0.0112842107 0
0.108333334 -0.0112842107 0
0.104999997 -0.0112842107 0
0.101666667 -0.0112842107 0
0.0983333364 -0.0112842107 0
0.0949999988 -0.0112842107 0
0.0916666687 -0.0112842107 0
0.088333331 -0.0112842107 0
0.0850000009 -0.0112842107 0
0.0816666633 -0.0112842107 0
0.0783333331 -0.0112842107 0
0.075000003 -0.0112842107 0
0.0716666654 -0.0112842107 0
0.0683333352 -0.0112842107 0
0.0649999976 -0.0112842107 0
0.0616666675 -0.0112842107 0
0.0583333336 -0.0112842107 0
0.0549999997 -0.0112842107 0
0.0516666658 -0.0112842107 0
0.0483333319 -0.0112842107 0
0.146666661 -0.0141709624 0
0.143333331 -0.0141709624 0
0.140000001 -0.0141709624 0
0.13666667 -0.0141709624 0
0.13333334 -0.0141709624 0
0.129999995 -0.0141709624 0
0.126666665 -0.0141709624 0
0.123333335 -0.0141709624 0
0.119999997 -0.0141709624 0
0.116666667 -0.0141709624 0
0.113333337 -0.0141709624 0
0.109999999 -0.0141709624 0
0.106666669 -0.0141709624 0
0.103333332 -0.0141709624 0
0.100000001 -0.0141709624 0
0.0966666639 -0.0141709624 0
0.0933333337 -0.0141709624 0
0.0900000036 -0.0141709624 0
0.086666666 -0.0141709624 0
0.0833333358 -0.0141709624 0
0.0799999982 -0.0141709624 0
0.0766666681 -0.0141709624 0
0.0733333305 -0.0141709624 0
0.0700000003 -0.0141709624 0
0.0666666701 -0.0141709624 0
0.0633333325 -0.0141709624 0
0.0599999987 -0.0141709624 0
0.0566666685 -0.0141709624 0
0.0533333346 -0.0141709624 0
0.0500000007 -0.0141709624 0
0.0466666669 -0.0141709624 0
0.144999996 -0.0170577131 0
0.141666666 -0.0170577131 0
0.138333336 -0.0170577131 0
0.135000005 -0.0170577131 0
0.13166666 -0.0170577131 0
0.12833333 -0.0170577131 0
0.125 -0.0170577131 0
0.12166667 -0.0170577131 0
0.118333332 -0.0170577131 0
0.115000002 -0.0170577131 0
0.111666664 -0.0170577131 0
0.108333334 -0.0170577131 0
0.104999997 -0.0170577131 0
0.101666667 -0.0170577131 0
0.0983333364 -0.0170577131 0
0.0949999988 -0.0170577131 0
0.0916666687 -0.0170577131 0
0.088333331 -0.0170577131 0
0.0850000009 -0.0170577131 0
0.0816666633 -0.0170577131 0
0.0783333331 -0.0170577131 0
0.075000003 -0.0170577131 0
0.0716666654 -0.0170577131 0
0.0683333352 -0.0170577131 0
0.0649999976 -0.0170577131 0
0.0616666675 -0.0170577131 0
0.0583333336 -0.0170577131 0
0.0549999997 -0.0170577131 0
0.0516666658 -0.0170577131 0
0.0483333319 -0.0170577131 0
0.0450000018 -0.0170577131 0
0.143333331 -0.0199444648 0
0.140000001 -0.0199444648 0
0.13666667 -0.0199444648 0
0.13333334 -0.0199444648 0
0.129999995 -0.0199444648 0
0.126666665 -0.0199444648 0
0.123333335 -0.0199444648 0
0.119999997 -0.0199444648 0
0.116666667 -0.0199444648 0
0.113333337 -0.0199444648 0
0.109999999 -0.0199444648 0
0.106666669 -0.0199444648 0
0.103333332 -0.0199444648 0
0.100000001 -0.0199444648 0
0.0966666639 -0.0199444648 0
0.0933333337 -0.0199444648 0
0.0900000036 -0.0199444648 0
0.086666666 -0.0199444648 0
0.0833333358 -0.0199444648 0
0.0799999982 -0.0199444648 0
0.0766666681 -0.0199444648 0
0.0733333305 -0.0199444648 0
0.0700000003 -0.0199444648 0
0.0666666701 -0.0199444648 0
0.0633333325 -0.0199444648 0
0.0599999987 -0.0199444648 0
0.0566666685 -0.0199444648 0
0.0533333346 -0.0199444648 0
0.0500000007 -0.0199444648 0
0.0466666669 -0.0199444648 0
0.043333333 -0.0199444648 0
0.141666666 -0.0228312165 0
0.138333336 -0.0228312165 0
0.135000005 -0.0228312165 0
0.13166666 -0.0228312165 0
0.12833333 -0.0228312165 0
0.125 -0.0228312165 0
0.12166667 -0.0228312165 0
0.118333332 -0.0228312165 0
0.115000002 -0.0228312165 0
0.111666664 -0.0228312165 0
0.108333334 -0.0228312165 0
0.104999997 -0.0228312165 0
0.101666667 -0.0228312165 0
0.0983333364 -0.0228312165 0
0.0949999988 -0.0228312165 0
0.0916666687 -0.0228312165 0
0.088333331 -0.0228312165 0
0.0850000009 -0.0228312165 0
0.0816666633 -0.0228312165 0
0.0783333331 -0.0228312165 0
0.075000003 -0.0228312165 0
0.0716666654 -0.0228312165 0
0.0683333352 -0.0228312165 0
0.0649999976 -0.0228312165 0
0.0616666675 -0.0228312165 0
0.0583333336 -0.0228312165 0
0.0549999997 -0.0228312165 0
0.0516666658 -0.0228312165 0
0.0483333319 -0.0228312165 0
0.0450000018 -0.0228312165 0
0.0416666679 -0.0228312165 0
0.140000001 -0.0257179681 0
0.13666667 -0.0257179681 0
0.13333334 -0.0257179681 0
0.129999995 -0.0257179681 0
0.126666665 -0.0257179681 0
0.123333335 -0.0257179681 0
0.119999997 -0.0257179681 0
0.116666667 -0.0257179681 0
0.113333337 -0.0257179681 0
0.109999999 -0.0257179681 0
0.106666669 -0.0257179681 0
0.103333332 -0.0257179681 0
0.100000001 -0.0257179681 0
0.0966666639 -0.0257179681 0
0.0933333337 -0.0257179681 0
0.0900000036 -0.0257179681 0
0.086666666 -0.0257179681 0
0.0833333358 -0.0257179681 0
0.0799999982 -0.0257179681 0
0.0766666681 -0.0257179681 0
0.0733333305 -0.0257179681 0
0.0700000003 -0.0257179681 0
0.0666666701 -0.0257179681 0
0.0633333325 -0.0257179681 0
0.0599999987 -0.0257179681 0
0.0566666685 -0.0257179681 0
0.0533333346 -0.0257179681 0
0.0500000007 -0.0257179681 0
0.0466666669 -0.0257179681 0
0.043333333 -0.0257179681 0
0.0399999991 -0.0257179681 0
0.138333336 -0.0286047198 0
0.135000005 -0.0286047198 0
0.13166666 -0.0286047198 0
0.12833333 -0.0286047198 0
0.125 -0.0286047198 0
0.12166667 -0.0286047198 0
0.118333332 -0.0286047198 0
0.115000002 -0.0286047198 0
0.111666664 -0.0286047198 0
0.108333334 -0.0286047198 0
0.104999997 -0.0286047198 0
0.101666667 -0.0286047198 0
0.0983333364 -0.0286047198 0
0.0949999988 -0.0286047198 0
0.0916666687 -0.0286047198 0
0.088333331 -0.0286047198 0
0.0850000009 -0.0286047198 0
0.0816666633 -0.0286047198 0
0.0783333331 -0.0286047198 0
0.075000003 -0.0286047198 0
0.0716666654 -0.0286047198 0
0.0683333352 -0.0286047198 0
0.0649999976 -0.0286047198 0
0.0616666675 -0.0286047198 0
0.0583333336 -0.0286047198 0
0.0549999997 -0.0286047198 0
0.0516666658 -0.0286047198 0
0.0483333319 -0.0286047198 0
0.0450000018 -0.0286047198 0
0.0416666679 -0.0286047198 0
0.038333334 -0.0286047198 0
0.13666667 -0.0314914696 0
0.13333334 -0.0314914696 0
0.129999995 -0.0314914696 0
0.126666665 -0.0314914696 0
0.123333335 -0.0314914696 0
0.119999997 -0.0314914696 0
0.116666667 -0.0314914696 0
0.113333337 -0.0314914696 0
0.109999999 -0.0314914696 0
0.106666669 -0.0314914696 0
0.103333332 -0.0314914696 0
0.100000001 -0.0314914696 0
0.0966666639 -0.0314914696 0
0.0933333337 -0.0314914696 0
0.0900000036 -0.0314914696 0
0.086666666 -0.0314914696 0
0.0833333358 -0.0314914696 0
0.0799999982 -0.0314914696 0
0.0766666681 -0.0314914696 0
0.0733333305 -0.0314914696 0
0.0700000003 -0.0314914696 0
0.0666666701 -0.0314914696 0
0.0633333325 -0.0314914696 0
0.0599999987 -0.0314914696 0
0.0566666685 -0.0314914696 0
0.0533333346 -0.0314914696 0
0.0500000007 -0.0314914696 0
0.0466666669 -0.0314914696 0
0.043333333 -0.0314914696 0
0.0399999991 -0.0314914696 0
0.0366666652 -0.0314914696 0
0.135000005 -0.0343782231 0
0.13166666 -0.0343782231 0
0.12833333 -0.0343782231 0
0.125 -0.0343782231 0
0.12166667 -0.0343782231 0
0.118333332 -0.0343782231 0
0.115000002 -0.0343782231 0
0.111666664 -0.0343782231 0
0.108333334 -0.0343782231 0
0.104999997 -0.0343782231 0
0.101666667 -0.0343782231 0
0.0983333364 -0.0343782231 0
0.0949999988 -0.0343782231 0
0.0916666687 -0.0343782231 0
0.088333331 -0.0343782231 0
0.0850000009 -0.0343782231 0
0.0816666633 -0.0343782231 0
0.0783333331 -0.0343782231 0
0.075000003 -0.0343782231 0
0.0716666654 -0.0343782231 0
0.0683333352 -0.0343782231 0
0.0649999976 -0.0343782231 0
0.0616666675 -0.0343782231 0
0.0583333336 -0.0343782231 0
0.0549999997 -0.0343782231 0
0.0516666658 -0.0343782231 0
0.0483333319 -0.0343782231 0
0.0450000018 -0.0343782231 0
0.0416666679 -0.0343782231 0
0.038333334 -0.0343782231 0
0.0350000001 -0.0343782231 0
0.13333334 -0.0372649729 0
0.129999995 -0.0372649729 0
0.126666665 -0.0372649729 0
0.123333335 -0.0372649729 0
0.119999997 -0.0372649729 0
0.116666667 -0.0372649729 0
0.113333337 -0.0372649729 0
0.109999999 -0.0372649729 0
0.106666669 -0.0372649729 0
0.103333332 -0.0372649729 0
0.100000001 -0.0372649729 0
0.0966666639 -0.0372649729 0
0.0933333337 -0.0372649729 0
0.0900000036 -0.0372649729 0
0.086666666 -0.0372649729 0
0.0833333358 -0.0372649729 0
0.0799999982 -0.0372649729 0
0.0766666681 -0.0372649729 0
0.0733333305 -0.0372649729 0
0.0700000003 -0.0372649729 0
0.0666666701 -0.0372649729 0
0.0633333325 -0.0372649729 0
0.0599999987 -0.0372649729 0
0.0566666685 -0.0372649729 0
0.0533333346 -0.0372649729 0
0.0500000007 -0.0372649729 0
0.0466666669 -0.0372649729 0
0.043333333 -0.0372649729 0
0.0399999991 -0.0372649729 0
0.0366666652 -0.0372649729 0
0.0333333351 -0.0372649729 0
0.13166666 -0.0401517227 0
0.12833333 -0.0401517227 0
0.125 -0.0401517227 0
0.12166667 -0.0401517227 0
0.118333332 -0.0401517227 0
0.115000002 -0.0401517227 0
0.111666664 -0.0401517227 0
[...]
POINT_DATA 961
SCALARS Temp float 1
LOOKUP_TABLE default
607.0652201974274
567.9099103335757
531.3518344818851
497.8968813524889
467.70714735786817
440.8326039912211
417.2317102357711
396.7864706554632
379.31656341961934
364.59542304804376
352.3661988946414
342.3569547367976
334.2949401898687
327.91904605782037
322.990055654035
319.29906530555616
316.67371321559955
314.9827629530594
314.1390605940821
314.1012146520273
314.8740745485873
316.50807309679436
319.0973721457038
322.77676610553556
327.71709987074775
334.1193778423611
342.20755413355056
352.22067203289623
364.40632857712507
379.02130821776666
396.4607130404538
567.9099210765148
528.5249108716743
492.28048751570486
459.3444459594517
429.8169689952429
403.6999215988272
380.91020278025303
361.2930034429238
344.6376963531017
330.69393371553895
319.1879521990953
309.8376165319121
302.36637640846243
296.5148724288708
292.05072656937
288.7760036795493
286.5328600311652
285.2074457292181
284.7322935925003
285.0874759941286
286.3005394898849
288.4452450294816
291.63906000775523
296.03922579383357
301.8373022113563
309.2523553240817
318.5227761275583
329.89785935197966
343.6301925136149
359.9749483856792
379.0213272483522
531.3517896740399
492.2804636388048
456.53689371353477
424.25498249089867
395.48066328939547
370.171845557519
348.20806866924534
329.4036055826867
313.5236367732684
300.30063026980736
289.450098346416
280.68552463958315
273.73148441913827
268.33452251030906
264.272175774768
261.35970923128804
259.45514917126536
258.4625845228917
258.3341153332685
259.0705101474722
260.7206379844558
263.37961715721724
267.1856100511784
272.31500942267735
278.97611721065374
287.40116823616165
297.83692230415033
310.5341031032014
325.734196865905
343.63018417459625
364.4063409980268
497.8968181257719
459.3444059436167
424.2549780233526
392.7238589399888
364.7555701374654
340.27109123240325
319.1184830885236
301.0877273338794
285.926415905713
273.35603121427874
263.08717142284786
254.83390252792384
248.32584273639304
243.318534186998
239.60148740272888
237.00441384744354
235.4016608147668
234.7150563055723
234.91544861229053
236.02292417268603
238.10574206849373
241.27791126877423
245.69522029650898
251.54956226285015
259.0616031388446
268.4714927704116
280.0280070543193
293.97517454841966
310.53412097506066
329.89787222331245
352.220663862551
467.70707710890423
429.8169232499921
395.4806329893268
364.7556748546607
337.61091112550235
313.9366757704445
293.5566422751558
276.2430202527799
261.73226681693296
249.74047968075982
239.9782940699893
232.16423054295745
226.03598659658988
221.36005161542323
217.9390858390053
215.61763726131323
214.2860792599169
213.88313989062178
214.3970521705155
215.86537751057236
218.37345464747818
222.05137621450035
227.06922551307443
233.63059881569868
241.96414630461754
252.31313911061986
264.9231845983504
280.02799908644016
297.8369163391645
318.52277609601555
342.20755843699106
440.8325228897625
403.69997773285263
370.1719185037354
340.2710512020144
313.93665843530454
291.0345933431755
271.3709497158064
254.7065452209094
240.77229721373345
229.28386835471113
219.9558670089394
212.51407493111466
206.7062827405804
202.31096303235088
199.14426505956445
197.06524169151496
195.97944875124514
195.84118823219777
196.65432465470496
198.47173508140207
201.39329493228402
205.56222119921392
211.15958795745914
218.39701422678314
227.507194626698
238.7327321320031
252.31313360243053
268.47149455947175
287.4011739773663
309.2523322356875
334.1193776925558
417.2317300668494
380.9102385000517
348.20813191907996
319.11843254456204
293.5566161975083
271.3709397782364
252.35602961000603
236.26711684581454
222.8342795766271
211.77667110369643
202.81565120266254
195.6862437277996
190.14729107815663
185.9895634552144
183.04236371075078
181.17836703155592
180.3170373926873
180.42659142347514
181.52453689039413
183.67676341971477
186.99506514872743
191.63286255142924
197.7791206548159
205.65021885969148
215.4798320444969
227.5071884148016
241.96413394424937
259.0615857544188
278.9761204263438
301.8373021740746
327.7171070429771
396.786489409498
361.2930356215767
329.4035292205474
301.08767390271544
276.2430292322408
254.7065705928067
236.26710846962598
220.67894844811755
207.67524284895234
196.98149438225022
188.32755707737493
181.45876111505802
176.14519516186004
172.18958178184337
169.43350835791682
167.76204830503738
167.1070148972443
167.448693122167
168.81614308571375
171.2859505183036
174.9792920610454
180.0571382709062
186.71360130685113
195.1671550218448
205.65021387569485
218.39700615425906
233.63060449827572
251.54956486948922
272.31499360055676
296.03920568842034
322.77675370596427
379.31657226055404
344.6377324720389
313.5236000609866
285.9264023929202
261.73227551285004
240.77227395808748
222.8342691706971
207.675270966308
195.03435221729566
184.64508838420113
176.2468719186798
169.59547387704637
164.47188881362095
160.68995817250635
158.10232042484674
156.60498234678676
156.14039583543732
156.6990271174861
158.31943074562972
161.08668558150916
165.1290299337339
170.61268159217929
177.73465061920686
186.71360644234827
197.77912632124898
211.15959028221081
227.06922473637212
245.69521543845957
267.1856121974268
291.6390704566922
319.0973916171086
364.595475525511
330.6938713848039
300.3006013884986
273.35602059054185
249.74048880178188
229.2838685969852
211.77668432844902
196.98148322288662
184.64507982980123
174.50990531337644
166.32516318807552
159.85660417088218
154.89530456585172
151.2650294222042
148.8280779462515
147.48980884742787
147.2015738176643
147.9621882519023
149.81777614391623
152.85992146169565
157.221967863082
163.073485309575
170.61267738024026
180.05713862129937
191.63286086760985
205.56221780144696
222.05137145659685
241.27789116624777
263.37960201763565
288.44522806556233
316.5080653868579
352.3662788556878
319.1879009794712
289.4500756033
263.0871874193199
239.97827711905026
219.95586761599935
202.81566469786583
188.32756183028465
176.24688106407484
166.32516159142338
158.32089486908941
152.0089999298337
147.1894899442984
143.694650790478
141.39496362641387
140.20354046124186
140.0789969142489
141.02680720330065
143.09896294176622
146.39185755102292
151.04236518977626
157.22197740865138
165.12903150711404
174.97928819477102
186.99505890330846
201.3932956065046
218.3734527675445
238.10573974298177
260.72064350890173
286.3005464986169
314.87406321631784
342.3568972516344
309.83759172838745
280.685526831025
254.8339204415296
232.16421347359116
212.5140903926798
195.68623499153833
181.4587651357607
169.59546063753154
159.8566026163371
152.0090118185314
145.83563290310212
141.1440470707354
137.77364968948203
135.6016321282258
134.547342042203
134.57517920660587
135.69580167777332
137.96564170370397
141.48458857793108
146.3918660691438
152.85992690245126
161.08668314019135
171.28596235750572
183.67677538998487
198.47174855779897
215.8653707257619
236.02291630557897
259.0705133805722
285.0874794047451
314.1012281419249
334.29490651576293
302.3663637233769
273.73149701704716
248.32582439247165
226.0359898050665
206.70630389474942
190.14728646553453
176.14520255977922
164.47188519860592
154.89531134662457
147.18948376397427
141.144042699222
136.57267863033502
133.32050658093627
131.27002710733683
130.34550762158494
130.51584859583284
131.795696640084
134.24481181651902
137.96563200718703
143.09896029472486
149.8177840297465
158.31942215139648
168.81614045447154
181.52453312655604
196.65432008074893
214.3970503996391
234.91544713695362
258.3341231892555
284.7322714640438
314.13906451689894
327.91901335134855
296.5148722588381
268.3345495409426
243.31851717924252
221.36005805859267
202.31094393110487
185.98956845804352
172.1895731054561
160.68995519025015
151.26503813786266
143.69464406651562
137.77365203595284
133.32050551696514
130.18474001897698
128.25291459765037
127.45311692750846
127.75772294526689
129.18446848664723
131.7956949792433
135.69580474870062
141.02680757122138
147.96219342251578
156.69902663627028
167.44870046678128
180.42660199324425
195.8411826089306
213.88313390210965
234.71505024787132
258.46258608021805
285.2074488134611
314.98276119418443
322.99004892862337
292.0507416954151
264.27215486651727
239.6014839476089
217.93911105333993
199.14426244089327
183.042377413667
169.43350543969225
158.10231889949395
148.82807633258028
141.39496444923287
135.60163518268433
131.27002550095912
128.25291709597352
126.43994980532518
125.76215238281532
126.19466271350106
127.75772153211248
130.5158456350932
134.5751764873978
140.07899756108242
147.20157120643324
156.14038716595928
167.10701305648792
180.31703508340465
195.97944784474038
214.28607770008085
235.40166063729794
259.45513086464706
286.53285768740676
316.6737068260926
319.29906260269775
288.7760231167905
261.3596972131759
237.00442047649366
215.61761789242598
197.06524216929787
181.17835244300085
167.7620512124527
156.6049882958785
147.48980828686683
140.20354247700698
134.54733600545697
130.34550910693926
127.45311427756276
125.76215253052546
125.20600145249242
125.76215341324355
127.4531154651901
130.34551181611343
134.54733895839405
140.20353934303827
147.48981384898116
156.60498329029224
167.7620578066946
181.17835993267943
197.06523564475464
215.61763251390082
237.0044095477373
261.3597153125089
288.77599049032847
319.2990653617755
316.6737354749354
286.5328365451102
259.4551565625648
235.40168518457492
214.28607400882788
195.97946524136597
180.31703623872454
167.10702399262368
156.14038736085595
147.20157990476486
140.07900537019086
134.57517704346463
130.51585400745262
127.75772272210574
126.19466369174441
125.76215410908921
126.43995128101008
128.25291353872112
131.27002750338252
135.60163127501778
141.39495965235275
148.82807838165428
158.1023117132602
169.43350641213135
183.04236398669326
199.14426737892768
217.93909046268527
239.6014617824923
264.2721737469165
292.05071069274317
322.9900519761752
314.9827940870609
285.2074290096406
258.46259760888023
234.71503314779758
213.8831406107082
195.84117344684722
180.42659397622762
167.4487060036288
156.69901985851257
147.96219709631478
141.02680379043676
135.69580128049856
131.79569316829682
129.18446701237858
127.75772431751182
127.45311725400286
128.2529151867845
130.18474199275983
133.3205076719232
137.77364940099523
143.69464847433093
151.26503365229289
160.68996046126873
172.18957902166142
185.9895621036979
202.31095590981403
221.3600468626099
243.31853123595354
268.334515064712
296.51486820534046
327.9190445518823
314.1390292351541
284.73228441044836
258.3341353268187
234.91542946825032
214.3970579337012
196.65431093547338
181.52453674428847
168.81613295444532
158.3194259303022
149.81778786286725
143.0989562844668
137.96563886400287
134.24480995845465
131.79569518134235
130.51584843424345
130.34550770798415
131.27002476713912
133.32050832869388
136.57267637527454
141.14404034546988
147.18948761583047
154.8953083512607
164.47188997810707
176.14519591436024
190.14729685413735
206.7062926551033
226.0359779092009
248.3258498547243
273.7314767297558
302.3663730148408
334.2949494951383
314.1012089414755
285.0874912994601
259.0704934838203
236.02292294435867
215.86535981142208
198.47173910930846
183.6767814839466
171.2859544114558
161.08668740953203
152.85992233896968
146.3918618861489
141.48458617080846
137.96563964990506
135.69580438375752
134.5751790496128
134.54734209725063
135.60163343692528
137.7736511247407
141.14404489547587
145.83563627951582
152.00900783303854
159.85660671909915
169.5954651458212
181.4587589930487
195.6862445723005
212.51407916756264
232.16422439445103
254.83388647483406
280.68551960975987
309.8376151094296
342.35694587365083
314.87407426198996
286.30055770166877
260.72062282808014
238.10574726626592
218.37344213242417
201.39329950303446
186.99505023872211
174.97929255338454
165.12903598516317
157.2219726858925
151.04237363614047
146.3918552134915
143.09896102358638
141.0268065670537
140.0789964564191
140.20353940713107
141.3949647814302
143.6946489707407
147.1894880112956
152.0090028149303
158.32089208813795
166.32516520553622
176.24687481274518
188.32757015849643
202.8156538142978
219.95585596580426
239.97829884995
263.0871677777759
289.4500841167117
319.1879427104525
352.36618891615836
316.5080743679096
288.44520407206045
263.3796082629884
241.27787869227794
222.05136081861966
205.5622245623337
191.63285197504769
180.0571435777129
170.6126721876611
163.07348055006548
157.22196495664448
152.85991890302384
149.81778010443202
147.96218771877213
147.20157343866745
147.48980959713623
148.82807877484345
151.26502766657194
154.89530706864608
159.85660065224758
166.32516630605838
174.50990862288728
184.64507396593675
196.98149083228438
211.77667352919616
229.28387757866656
249.74045749412434
273.35601505842897
300.30062831787313
330.6939388142093
364.59543293884985
319.0974215731041
291.6390684697495
267.18564047355545
245.69522319424362
227.06924758455347
211.1595983329475
197.77914814029145
186.71362770014804
177.73466078125682
170.6127064267868
165.1290416355429
161.08669725825007
158.31944326068418
156.69903934311623
156.14040864551578
156.6049953588712
158.10233085113157
160.6899679569021
164.47190163775636
169.5954813370352
176.2468837973308
184.645090874218
195.03436613196084
207.67526680564507
222.83426314472032
240.7722967325882
261.7322603158505
285.9264138992585
313.52364663811574
344.63765925970995
379.3165414350979
322.7767513269844
296.0392357307942
272.3150022802931
251.54957455274933
233.63063224199536
218.39701611324182
205.6502383603166
195.1671676055061
186.7136138246313
180.05715219387596
174.97930589201235
171.28597198457365
168.816158348192
167.44870813231856
167.1070305573868
167.76206361500314
169.43352149508888
172.1895976023204
176.14520549976515
181.45877619947842
188.32757138463103
196.9814998966201
207.6752589032011
220.678947101369
236.26712353937523
254.70654816266648
276.2430296769375
301.0877045215663
329.403597404146
361.2929954988147
396.7864765320629
327.71709821632487
301.837323220294
278.9761199053144
259.06160201230256
241.96413483682304
227.50720477575604
215.47984827044039
205.65022332434734
197.77914174947315
191.63286932936316
186.99507214921928
183.67677144826055
181.5245447995309
180.4266014236638
180.31704660732578
181.17837461637708
183.04237097954214
185.98957318451278
190.1472966544757
195.68625321308858
202.8156529609794
211.77668299102075
222.8342758580923
236.26711183170312
252.35605072136653
271.37092686762986
293.55662817243285
319.11847688614705
348.2080619866259
380.91020613146526
417.2317343117815
334.1193866583523
309.25231902391437
287.4011627419056
268.4715032479885
252.31312424223478
238.73273880902946
227.50718905916764
218.39700906592307
211.15958456902277
205.56221805970202
201.39330088064207
198.47173416820067
196.65432376901967
195.84118823024124
195.9794487514411
197.06524060194963
199.1442663038447
202.31096024248097
206.70628436629212
212.51407633632536
219.95586143601813
229.2838725469411
240.77228659572734
254.7065498184967
271.37092077298496
291.03458544919846
313.93667795524163
340.2711039205052
370.1718661094526
403.6999428894847
440.8325227626574
342.2075532254138
318.522750233699
297.836908726229
280.02797590794546
264.9231779099315
252.31313247529602
241.96412744891964
233.63059780593747
227.06920947804994
222.05136058626337
218.3734401713324
215.8653630666286
214.39704092386677
213.88312723526528
214.28606574435142
215.6176237672363
217.93907448958507
221.3600371590799
226.0359758058643
232.16421351220114
239.97828628103582
249.7404584610225
261.7322448336951
276.24302197550065
293.5566128830584
313.9366684998023
337.61093200310836
364.75558528390883
395.48057193779687
429.8168860202491
467.70706628033423
352.2206802753413
329.8978910727268
310.5341605393821
293.97519539236896
280.02804393730315
268.4715167178749
259.06162730906823
251.54958795589906
245.6952460970409
241.27794665745034
238.1057699450273
236.0229519074706
234.91547697673633
234.71508449481487
235.40168816347804
237.0044426828489
239.6015125400766
243.31856262451393
248.32587034651368
254.83392333183812
263.0871999615013
273.35604534289286
285.9264422620431
301.08772118946445
319.1184936042128
340.27112342591755
364.75562800272
392.72381100449854
424.25493563604954
459.3443806121469
497.89682588276247
364.4063534694755
343.63021688816093
325.73421323088354
310.53413538847184
297.83695417894853
287.4011874696432
278.97615432977693
272.3150312078074
267.185632134499
263.3796401908769
260.72066086180024
259.0705365108972
258.33413965248985
258.4626080762591
259.45517249017803
261.359733902139
264.27219732576435
268.33454667574307
273.73150239146605
280.6855499420199
289.4501104524747
300.3006403396115
313.5236666523967
329.40360456619857
348.2080848845067
370.17188349852285
395.4805920836764
424.2549292700299
456.53685058499315
492.28043249846695
531.3517880363204
379.0213306225224
359.97496997088115
343.630194109956
329.8978761712796
318.5227799588804
309.25235929725
301.8373076159588
296.03923137506507
291.6390753914013
288.44525290228523
286.300547200388
285.08748438852126
284.7323019724857
285.20745373172394
286.5328693605731
288.7760099790676
292.05073597825276
296.51488124998826
302.3663794015139
309.8376267341455
319.1879494385087
330.69394222221155
344.63767491495065
361.29299688417547
380.9102150237849
403.699955643025
429.81690094061247
459.34437695487264
492.28042347708373
528.524856534592
567.9098397009445
396.46072799438656
379.02130218211823
364.40633699238487
352.22067970715034
342.2075489774611
334.1193900722392
327.71709693892126
322.7767640551122
319.09737090772546
316.50807113865073
314.87407638828
314.1012143023695
314.1390599755109
314.9827621071839
316.6737136359155
319.29906319219924
322.99005570239956
327.9190410482962
334.2949419395654
342.35694457321364
352.3661870620692
364.59542985385474
379.3165421032378
396.7864647047015
417.23172324464525
440.83251467395723
467.7070735701569
497.89681194008296
531.3517649683672
567.909824672845
607.0648810272319
