# vtk DataFile Version 2.0
Unstructured Grid Example
ASCII
DATASET UNSTRUCTURED_GRID

POINTS 961 float
0.150000006 -0.00839745998 0
0.146666661 -0.00839745998 0
0.143333331 -0.00839745998 0
0.140000001 -0.00839745998 0
0.13666667 -0.00839745998 0
0.13333334 -0.00839745998 0
0.129999995 -0.00839745998 0
0.126666665 -0.00839745998 0
0.123333335 -0.00839745998 0
0.119999997 -0.00839745998 0
0.116666667 -0.00839745998 0
0.113333337 -0.00839745998 0
0.109999999 -0.00839745998 0
0.106666669 -0.00839745998 0
0.103333332 -0.00839745998 0
0.100000001 -0.00839745998 0
0.0966666639 -0.00839745998 0
0.0933333337 -0.00839745998 0
0.0900000036 -0.00839745998 0
0.086666666 -0.00839745998 0
0.0833333358 -0.00839745998 0
0.0799999982 -0.00839745998 0
0.0766666681 -0.00839745998 0
0.0733333305 -0.00839745998 0
0.0700000003 -0.00839745998 0
0.0666666701 -0.00839745998 0
0.0633333325 -0.00839745998 0
0.0599999987 -0.00839745998 0
0.0566666685 -0.00839745998 0
0.0533333346 -0.00839745998 0
0.0500000007 -0.00839745998 0
0.148333326 -0.0112842107 0
0.144999996 -0.0112842107 0
0.141666666 -0.0112842107 0
0.138333336 -0.0112842107 0
0.135000005 -0.0112842107 0
0.13166666 -0.0112842107 0
0.12833333 -0.0112842107 0
0.125 -0.0112842107 0
0.12166667 -0.0112842107 0
0.118333332 -0.0112842107 0
0.115000002 -0.0112842107 0
0.111666664 -0.0112842107 0
0.108333334 -0.0112842107 0
0.104999997 -0.0112842107 0
0.101666667 -0.0112842107 0
0.0983333364 -0.0112842107 0
0.0949999988 -0.0112842107 0
0.0916666687 -0.0112842107 0
0.088333331 -0.0112842107 0
0.0850000009 -0.0112842107 0
0.0816666633 -0.0112842107 0
0.0783333331 -0.0112842107 0
0.075000003 -0.0112842107 0
0.0716666654 -0.0112842107 0
0.0683333352 -0.0112842107 0
0.0649999976 -0.0112842107 0
0.0616666675 -0.0112842107 0
0.0583333336 -0.0112842107 0
0.0549999997 -0.0112842107 0
0.0516666658 -0.0112842107 0
0.0483333319 -0.0112842107 0
0.146666661 -0.0141709624 0
0.143333331 -0.0141709624 0
0.140000001 -0.0141709624 0
0.13666667 -0.0141709624 0
0.13333334 -0.0141709624 0
0.129999995 -0.0141709624 0
0.126666665 -0.0141709624 0
0.123333335 -0.0141709624 0
0.119999997 -0.0141709624 0
0.116666667 -0.0141709624 0
0.113333337 -0.0141709624 0
0.109999999 -0.0141709624 0
0.106666669 -0.0141709624 0
0.103333332 -0.0141709624 0
0.100000001 -0.0141709624 0
0.0966666639 -0.0141709624 0
0.0933333337 -0.0141709624 0
0.0900000036 -0.0141709624 0
0.086666666 -0.0141709624 0
0.0833333358 -0.0141709624 0
0.0799999982 -0.0141709624 0
0.0766666681 -0.0141709624 0
0.0733333305 -0.0141709624 0
0.0700000003 -0.0141709624 0
0.0666666701 -0.0141709624 0
0.0633333325 -0.0141709624 0
0.0599999987 -0.0141709624 0
0.0566666685 -0.0141709624 0
0.0533333346 -0.0141709624 0
0.0500000007 -0.0141709624 0
0.0466666669 -0.0141709624 0
0.144999996 -0.0170577131 0
0.141666666 -0.0170577131 0
0.138333336 -0.0170577131 0
0.135000005 -0.0170577131 0
0.13166666 -0.0170577131 0
0.12833333 -0.0170577131 0
0.125 -0.0170577131 0
0.12166667 -0.0170577131 0
0.118333332 -0.0170577131 0
0.115000002 -0.0170577131 0
0.111666664 -0.0170577131 0
0.108333334 -0.0170577131 0
0.104999997 -0.0170577131 0
0.101666667 -0.0170577131 0
0.0983333364 -0.0170577131 0
0.0949999988 -0.0170577131 0
0.0916666687 -0.0170577131 0
0.088333331 -0.0170577131 0
0.0850000009 -0.0170577131 0
0.0816666633 -0.0170577131 0
0.0783333331 -0.0170577131 0
0.075000003 -0.0170577131 0
0.0716666654 -0.0170577131 0
0.0683333352 -0.0170577131 0
0.0649999976 -0.0170577131 0
0.0616666675 -0.0170577131 0
0.0583333336 -0.0170577131 0
0.0549999997 -0.0170577131 0
0.0516666658 -0.0170577131 0
0.0483333319 -0.0170577131 0
0.0450000018 -0.0170577131 0
0.143333331 -0.0199444648 0
0.140000001 -0.0199444648 0
0.13666667 -0.0199444648 0
0.13333334 -0.0199444648 0
0.129999995 -0.0199444648 0
0.126666665 -0.0199444648 0
0.123333335 -0.0199444648 0
0.119999997 -0.0199444648 0
0.116666667 -0.0199444648 0
0.113333337 -0.0199444648 0
0.109999999 -0.0199444648 0
0.106666669 -0.0199444648 0
0.103333332 -0.0199444648 0
0.100000001 -0.0199444648 0
0.0966666639 -0.0199444648 0
0.0933333337 -0.0199444648 0
0.0900000036 -0.0199444648 0
0.086666666 -0.0199444648 0
0.0833333358 -0.0199444648 0
0.0799999982 -0.0199444648 0
0.0766666681 -0.0199444648 0
0.0733333305 -0.0199444648 0
0.0700000003 -0.0199444648 0
0.0666666701 -0.0199444648 0
0.0633333325 -0.0199444648 0
0.0599999987 -0.0199444648 0
0.0566666685 -0.0199444648 0
0.0533333346 -0.0199444648 0
0.0500000007 -0.0199444648 0
0.0466666669 -0.0199444648 0
0.043333333 -0.0199444648 0
0.141666666 -0.0228312165 0
0.138333336 -0.0228312165 0
0.135000005 -0.0228312165 0
0.13166666 -0.0228312165 0
0.12833333 -0.0228312165 0
0.125 -0.0228312165 0
0.12166667 -0.0228312165 0
0.118333332 -0.0228312165 0
0.115000002 -0.0228312165 0
0.111666664 -0.0228312165 0
0.108333334 -0.0228312165 0
0.104999997 -0.0228312165 0
0.101666667 -0.0228312165 0
0.0983333364 -0.0228312165 0
0.0949999988 -0.0228312165 0
0.0916666687 -0.0228312165 0
0.088333331 -0.0228312165 0
0.0850000009 -0.0228312165 0
0.0816666633 -0.0228312165 0
0.0783333331 -0.0228312165 0
0.075000003 -0.0228312165 0
0.0716666654 -0.0228312165 0
0.0683333352 -0.0228312165 0
0.0649999976 -0.0228312165 0
0.0616666675 -0.0228312165 0
0.0583333336 -0.0228312165 0
0.0549999997 -0.0228312165 0
0.0516666658 -0.0228312165 0
0.0483333319 -0.0228312165 0
0.0450000018 -0.0228312165 0
0.0416666679 -0.0228312165 0
0.140000001 -0.0257179681 0
0.13666667 -0.0257179681 0
0.13333334 -0.0257179681 0
0.129999995 -0.0257179681 0
0.126666665 -0.0257179681 0
0.123333335 -0.0257179681 0
0.119999997 -0.0257179681 0
0.116666667 -0.0257179681 0
0.113333337 -0.0257179681 0
0.109999999 -0.0257179681 0
0.106666669 -0.0257179681 0
0.103333332 -0.0257179681 0
0.100000001 -0.0257179681 0
0.0966666639 -0.0257179681 0
0.0933333337 -0.0257179681 0
0.0900000036 -0.0257179681 0
0.086666666 -0.0257179681 0
0.0833333358 -0.0257179681 0
0.0799999982 -0.0257179681 0
0.0766666681 -0.0257179681 0
0.0733333305 -0.0257179681 0
0.0700000003 -0.0257179681 0
0.0666666701 -0.0257179681 0
0.0633333325 -0.0257179681 0
0.0599999987 -0.0257179681 0
0.0566666685 -0.0257179681 0
0.0533333346 -0.0257179681 0
0.0500000007 -0.0257179681 0
0.0466666669 -0.0257179681 0
0.043333333 -0.0257179681 0
0.0399999991 -0.0257179681 0
0.138333336 -0.0286047198 0
0.135000005 -0.0286047198 0
0.13166666 -0.0286047198 0
0.12833333 -0.0286047198 0
0.125 -0.0286047198 0
0.12166667 -0.0286047198 0
0.118333332 -0.0286047198 0
0.115000002 -0.0286047198 0
0.111666664 -0.0286047198 0
0.108333334 -0.0286047198 0
0.104999997 -0.0286047198 0
0.101666667 -0.0286047198 0
0.0983333364 -0.0286047198 0
0.0949999988 -0.0286047198 0
0.0916666687 -0.0286047198 0
0.088333331 -0.0286047198 0
0.0850000009 -0.0286047198 0
0.0816666633 -0.0286047198 0
0.0783333331 -0.0286047198 0
0.075000003 -0.0286047198 0
0.0716666654 -0.0286047198 0
0.0683333352 -0.0286047198 0
0.0649999976 -0.0286047198 0
0.0616666675 -0.0286047198 0
0.0583333336 -0.0286047198 0
0.0549999997 -0.0286047198 0
0.0516666658 -0.0286047198 0
0.0483333319 -0.0286047198 0
0.0450000018 -0.0286047198 0
0.0416666679 -0.0286047198 0
0.038333334 -0.0286047198 0
0.13666667 -0.0314914696 0
0.13333334 -0.0314914696 0
0.129999995 -0.0314914696 0
0.126666665 -0.0314914696 0
0.123333335 -0.0314914696 0
0.119999997 -0.0314914696 0
0.116666667 -0.0314914696 0
0.113333337 -0.0314914696 0
0.109999999 -0.0314914696 0
0.106666669 -0.0314914696 0
0.103333332 -0.0314914696 0
0.100000001 -0.0314914696 0
0.0966666639 -0.0314914696 0
0.0933333337 -0.0314914696 0
0.0900000036 -0.0314914696 0
0.086666666 -0.0314914696 0
0.0833333358 -0.0314914696 0
0.0799999982 -0.0314914696 0
0.0766666681 -0.0314914696 0
0.0733333305 -0.0314914696 0
0.0700000003 -0.0314914696 0
0.0666666701 -0.0314914696 0
0.0633333325 -0.0314914696 0
0.0599999987 -0.0314914696 0
0.0566666685 -0.0314914696 0
0.0533333346 -0.0314914696 0
0.0500000007 -0.0314914696 0
0.0466666669 -0.0314914696 0
0.043333333 -0.0314914696 0
0.0399999991 -0.0314914696 0
0.0366666652 -0.0314914696 0
0.135000005 -0.0343782231 0
0.13166666 -0.0343782231 0
0.12833333 -0.0343782231 0
0.125 -0.0343782231 0
0.12166667 -0.0343782231 0
0.118333332 -0.0343782231 0
0.115000002 -0.0343782231 0
0.111666664 -0.0343782231 0
0.108333334 -0.0343782231 0
0.104999997 -0.0343782231 0
0.101666667 -0.0343782231 0
0.0983333364 -0.0343782231 0
0.0949999988 -0.0343782231 0
0.0916666687 -0.0343782231 0
0.088333331 -0.0343782231 0
0.0850000009 -0.0343782231 0
0.0816666633 -0.0343782231 0
0.0783333331 -0.0343782231 0
0.075000003 -0.0343782231 0
0.0716666654 -0.0343782231 0
0.0683333352 -0.0343782231 0
0.0649999976 -0.0343782231 0
0.0616666675 -0.0343782231 0
0.0583333336 -0.0343782231 0
0.0549999997 -0.0343782231 0
0.0516666658 -0.0343782231 0
0.0483333319 -0.0343782231 0
0.0450000018 -0.0343782231 0
0.0416666679 -0.0343782231 0
0.038333334 -0.0343782231 0
0.0350000001 -0.0343782231 0
0.13333334 -0.0372649729 0
0.129999995 -0.0372649729 0
0.126666665 -0.0372649729 0
0.123333335 -0.0372649729 0
0.119999997 -0.0372649729 0
0.116666667 -0.0372649729 0
0.113333337 -0.0372649729 0
0.109999999 -0.0372649729 0
0.106666669 -0.0372649729 0
0.103333332 -0.0372649729 0
0.100000001 -0.0372649729 0
0.0966666639 -0.0372649729 0
0.0933333337 -0.0372649729 0
0.0900000036 -0.0372649729 0
0.086666666 -0.0372649729 0
0.0833333358 -0.0372649729 0
0.0799999982 -0.0372649729 0
0.0766666681 -0.0372649729 0
0.0733333305 -0.0372649729 0
0.0700000003 -0.0372649729 0
0.0666666701 -0.0372649729 0
0.0633333325 -0.0372649729 0
0.0599999987 -0.0372649729 0
0.0566666685 -0.0372649729 0
0.0533333346 -0.0372649729 0
0.0500000007 -0.0372649729 0
0.0466666669 -0.0372649729 0
0.043333333 -0.0372649729 0
0.0399999991 -0.0372649729 0
0.0366666652 -0.0372649729 0
0.0333333351 -0.0372649729 0
0.13166666 -0.0401517227 0
0.12833333 -0.0401517227 0
0.125 -0.0401517227 0
0.12166667 -0.0401517227 0
0.118333332 -0.0401517227 0
0.115000002 -0.0401517227 0
0.111666664 -0.0401517227 0
[...]
POINT_DATA 961
SCALARS Temp float 1
LOOKUP_TABLE default
259.46529441613626
211.91449894595183
182.9431178655091
168.5025204706662
162.2184024284948
159.75632988019908
158.86509730322695
158.56121878283636
158.46228974378255
158.43124256779075
158.42178349045565
158.41897507236163
158.41815740023978
158.41792339918206
158.41785897800847
158.41783850976887
158.41783370059156
158.41783102668143
158.41783298007684
158.4178354183357
158.41784901954964
158.4179234742089
158.418305702383
158.42026587337617
158.42986377030547
158.47450791808618
158.6682648590065
159.43288459289283
162.07501394330833
169.71871740679424
188.04682442930263
211.91451685155133
169.98713220465925
147.29436526563396
136.59954062209553
132.13500296886866
130.43707392519556
129.83529208497905
129.63323343524206
129.56821019815317
129.54798856539213
129.54187440946086
129.54006794099453
129.53954495249184
129.5393962552212
129.5393528133762
129.53934271735216
129.5393399954313
129.53933976312948
129.53934014379897
129.53934630035565
129.53938016572224
129.5395568313138
129.54047445891618
129.54500527075405
129.56636177219767
129.66094914171413
130.04625933605377
131.446748907054
135.81838825583705
147.10675983191913
169.7187326691633
182.94309386199723
147.29436096299185
128.1381396501015
119.17706363516648
115.43738860077954
114.01018645355084
113.50183215173075
113.33026003623637
113.27478252761469
113.25745658107436
113.25220030717419
113.25064280265052
113.25019061365042
113.25006179725413
113.25002580457583
113.25001520932896
113.25001178142128
113.25001256637472
113.25001503169177
113.2500293332932
113.25010534054285
113.25049602766181
113.25242953376336
113.26158650734477
113.30251917198595
113.47218650102069
114.10899505724637
116.21034069818954
122.11938303155245
135.81837876501808
162.07501664704907
168.50250128844527
136.59953962085277
119.17707083867047
110.91783064509295
107.43456810335543
106.09393739767141
105.61320274605882
105.45009398028049
105.39713503496496
105.38054259544002
105.37549394879663
105.37399512559361
105.37355932482221
105.37343439232315
105.37339990519183
105.37339023871749
105.3733880568183
105.3733881526109
105.37339365855618
105.3734237381936
105.37357766961794
105.37434108655245
105.37794998934065
105.39411933948948
105.4617367429587
105.72075241166598
106.60992488786864
109.28620485678029
116.21034736672122
131.44675872840068
159.43287812210792
162.2183961446122
132.13500598594675
115.43739365154995
107.43458221295644
104.03497894992212
102.7202014688588
102.24715854825254
102.08627794280457
102.03395240436092
102.0175372468185
102.0125378875916
102.01105253812669
102.01062040983325
102.01049704333545
102.01046214427147
102.01045240981772
102.01045041251828
102.01045184225954
102.01046293035049
102.01052035740666
102.01080291559086
102.01213296563124
102.01808334536696
102.04306196462274
102.14000769457597
102.48238052595042
103.56661834520602
106.60992242704901
114.10899352259537
130.0462565730397
158.66827146250367
159.75632339751363
130.4370861687152
114.01019892631832
106.09392670556636
102.72019817353127
101.41282297148376
100.94184632148391
100.78153355543631
100.72936277458582
100.7129889595754
100.70800080819585
100.70651847756301
100.70608705628445
100.70596386627683
100.70592919420545
100.70591977869589
100.70591786027425
100.70592116815786
100.70594132073538
100.70604043804487
100.70650501506319
100.7085750549396
100.7172710649437
100.75131170804927
100.87405410416396
101.27788011907234
102.48238026375179
105.72075302586008
113.47219106149312
129.66093454530036
158.4744992437872
158.86509405143875
129.8353002549126
113.50185103633576
105.61318842817273
102.24715506901235
100.94184588989302
100.47141288198158
100.31124289195918
100.25910906142154
100.24274490598972
100.23775927865904
100.236277602193
100.23584644689028
100.23572318726967
100.23568853543603
100.23567921052296
100.23567794738017
100.23568413391813
100.23571733132896
100.23587246048533
100.23656038722751
100.23944754012788
100.25081381041261
100.29244458323448
100.433476871652
100.87405378576963
102.14000649385818
105.46173415927402
113.30251620776474
129.5663590396648
158.42987320452352
158.56122432490466
129.63324360346422
113.33022920801021
105.45008223157365
102.08627621465344
100.78153435067591
100.31124278749729
100.15110819126495
100.09898301454594
100.08262112708636
100.07763605204207
100.07615451164716
100.0757233803977
100.07560016348233
100.07556558361271
100.075556404672
100.07555602320676
100.07556613753168
100.0756158738821
100.07583601261356
100.07675822149508
100.08040273047914
100.09391424936747
100.14075140101468
100.29244449350597
100.75131162930272
102.04306200220766
105.39411942802843
113.26157943521994
129.54498961083354
158.42025611328074
158.46228352517096
129.56822759576025
113.27474999483272
105.39712663289285
102.0339523513729
100.72936213297453
100.25910909860492
100.09898319795917
100.04686005728475
100.03049869099924
100.02551373414668
100.02403223647396
100.0236011004244
100.0234778965789
100.02344336760264
100.02343445693327
100.02343522130339
100.02345008080553
100.02351816939304
100.02380339677593
100.02493375151376
100.02916512804234
100.04410700837448
100.09391430800964
100.25081375580835
100.71727083949452
102.01808313518848
105.37794810155076
113.25243124909906
129.54047852942875
158.41832198543494
158.43125530936354
129.54793032290132
113.25744266490254
105.38054167442569
102.01754056477496
100.71298905910325
100.24274527227709
100.08262115218062
100.03049868515527
100.01413740128774
100.00915248637999
100.0076709927549
100.00723986418427
100.00711668069421
100.00708222246489
100.00707363726089
100.00707572644619
100.0070956229371
100.0071813329727
100.00752229268514
100.00880893332506
100.01342207829077
100.02916510797674
100.08040270159132
100.23944754951822
100.70857504848883
102.01213307580576
105.37433555215286
113.25048758516587
129.53954381474273
158.41791344463857
158.42183279007318
129.54183420836534
113.25219693662888
105.37549725279736
102.0125373580236
100.70800125653511
100.23775978978667
100.07763605021681
100.02551375610209
100.00915248507025
100.00416758059507
100.00268608713682
100.00225496563587
100.00213180307608
100.0020974361602
100.00208921265956
100.00209265464248
100.00211721802525
100.00221752144549
100.00259916956598
100.00398528806559
100.00880893974903
100.02493375871325
100.07675819288362
100.2365603055827
100.70650484168276
102.01080198549084
105.37357723463448
113.25010787680819
129.53938783825765
158.4178378274012
158.41893220341214
129.54005168837483
113.25064700255146
105.37400214026417
102.01105175446283
100.70651897691559
100.23627745987524
100.07615452613837
100.02403219539214
100.00767099303229
100.00268608999242
100.00120459789449
100.00077348448914
100.00065034747747
100.00061607891519
100.00060821284683
100.00061286744322
100.00064118137882
100.00075187772623
100.0011589315547
100.0025991733085
100.00752229763258
100.02380338665375
100.07583605927762
100.23587259562693
100.70604106727046
102.01051954217694
105.37342192361588
113.25002999827025
129.5393465771962
158.41784819910927
158.41814703272323
129.53955195741597
113.25020418505039
105.37355750131164
102.01062102343995
100.70608834864325
100.23584633522108
100.07572348140957
100.02360107357943
100.00723986991635
100.00225496383166
100.00077348370752
100.00034238283851
100.00021927752974
100.0001851069505
100.00017755496894
100.00018316092546
100.00021408790721
100.00033116316801
100.00075187635478
100.00221752067488
100.00718133975992
100.02351813812626
100.07561585681302
100.23571727737878
100.70594105084915
102.01046261940996
105.37339309568247
113.25001830316552
129.539320878788
158.41783394651017
158.4179136585258
129.5394011346293
113.25007682436171
105.37343080394625
102.01049732533248
100.70596320277333
100.2357231548229
100.07560009182507
100.02347788241082
100.00711669087836
100.0021318000313
100.00065034711018
100.00021927743063
100.00009621953492
100.00006214607953
100.00005484444581
100.00006110618938
100.00009361617062
100.00021408775264
100.00064118172871
100.0021172172845
100.00709562655398
100.02345007778999
100.0755661927088
100.23568432625562
100.70592087624274
102.01045108239765
105.37338647586505
113.25001178320348
129.53934255054187
158.4178313777905
158.41786080996437
129.53936833179623
113.25001838591962
105.37339898087328
102.01046470587407
100.70592884660049
100.2356888488594
100.07556554331327
100.0234433640261
100.00708222068157
100.0020974355524
100.00061607940165
100.00018510684006
100.00006214612719
100.00002818881667
100.0000210836115
100.00002775294612
100.00006110613329
100.00018316070488
100.00061286685447
100.00209265494519
100.0070757238167
100.0234351950711
100.07555600720394
100.23567784477935
100.7059177494127
102.0104501875397
105.3733877317197
113.2500042633436
129.53933728277292
158.41782832054804
158.41783514697946
129.53935711935793
113.2500053162594
105.37338999359017
102.0104506247769
100.7059196181111
100.23567897754953
100.07555640262044
100.02343447098534
100.00707363292241
100.00208921271688
100.00060821171162
100.00017755495698
100.00005484436163
100.00002108360982
100.00001416451417
100.00002108362467
100.0000548443803
100.00017755523393
100.0006082122188
100.0020892116663
100.007073642184
100.02343445572515
100.07555646876688
100.23567910084522
100.70591946813441
102.01045211070259
105.3733885942209
113.25001883753275
129.53933626679085
158.41784279996466
158.4178445412389
129.539317308099
113.25001377957189
105.37339399971526
102.01044956089821
100.70591866731115
100.23567783305477
100.07555606296357
100.0234351941157
100.00707573024343
100.00209265800964
100.00061286667739
100.00018316119338
100.00006110614189
100.00002775295948
100.00002108363758
100.0000281888436
100.00006214601986
100.00018510692662
100.00061607851424
100.00209743352555
100.00708222014742
100.02344334348642
100.07556554229714
100.23568853093262
100.70592918286836
102.01046238660567
105.37339470645834
113.2500243063427
129.53934196580778
158.41785127724663
158.41785847022072
129.5393240642995
113.25001791811006
105.37338349605942
102.01045151804806
100.70592044076673
100.2356840961747
100.0755662316444
100.02345004705529
100.00709563008644
100.00211721565167
100.0006411808155
100.00021408769476
100.00009361612231
100.00006110621719
100.0000548444653
100.00006214608787
100.00009621961438
100.00021927757025
100.00065034673267
100.00213180255211
100.00711668517263
100.02347790191875
100.07560013189851
100.2357231134588
100.705963725916
102.01049630038719
105.3734346706586
113.25005724295991
129.53938937751602
158.4179235070285
158.41780721884902
129.5393345644784
113.25002615774275
105.37338815644951
102.0104634496937
100.70594043988446
100.23571726164592
100.07561579823697
100.02351814291883
100.00718134502998
100.00221751860371
100.00075187755354
100.00033116304867
100.00021408785061
100.00018316090973
100.00017755495836
100.00018510693097
100.00021927761576
100.00034238268235
100.0007734835224
100.00225496505585
100.00723986856532
100.02360109053168
100.0757234275233
100.23584659164015
100.70608771927438
102.01061955795502
105.37355990050975
113.25019011709232
129.53954361238283
158.4181643116285
158.41783270721206
129.53935735145055
113.25002107069812
105.3734219778345
102.0105180498109
100.70604038345608
100.2358727203004
100.07583597106418
100.02380340034692
100.00752229299246
100.00259917048638
100.00115893136808
100.00075187753109
100.00064118147122
100.0006128676274
100.0006082128668
100.00061607892319
100.00065034753112
100.00077348431137
100.00120459859377
100.00268608816192
100.00767099888223
100.0240322058081
100.07615449666156
100.23627754787654
100.7065182132248
102.01105230541127
105.37399075605272
113.25063764205545
129.54005835831583
158.41897333069835
158.41784472794157
129.53939420769274
113.25009389909222
105.37357840167245
102.01080032870759
100.70650484905359
100.23656014951058
100.07675821509564
100.02493377722152
100.00880893346114
100.00398529219204
100.00259916966701
100.00221752129983
100.00211721783919
100.00209265447798
100.00208921271009
100.00209743654027
100.00213180287442
100.00225496569016
100.00268608752927
100.00416757995934
100.00915248949832
100.0255137323421
100.07763610642328
100.23775945611767
100.70800043796025
102.01253788446022
105.37549151691577
113.25219925601786
129.5418731224012
158.42178022707958
158.41791282587164
129.53951885800709
113.25048682670865
105.37433205393162
102.01213147608803
100.70857546964916
100.2394473078849
100.08040274810395
100.02916509531188
100.01342206995886
100.0088089324445
100.00752229161498
100.00718133325272
100.00709562503631
100.00707572669586
100.00707363712866
100.00708222262288
100.00711668009518
100.00723986441899
100.00767099229691
100.00915248857135
100.01413740237415
100.0304986680965
100.08262115519447
100.24274495315538
100.71298933331992
102.01753671048078
105.38054171575176
113.25746118672575
129.54799632437613
158.43125880591012
158.41834413733304
129.54046754719056
113.25244248792015
105.3779480276144
102.01808468495325
100.71727092883185
100.25081402592257
100.09391445428349
100.04410704225072
100.02916518372774
100.02493379608184
100.02380343556867
100.02351820640197
100.02345011774794
100.02343526054726
100.02343449930322
100.02344340456605
100.02347793660536
100.02360113993747
100.02403227372139
100.02551377394038
100.03049871555477
100.04686009223599
100.09898306568189
100.25910875370353
100.72936230177456
102.03395059106246
105.39713024859479
113.27477669009653
129.56818858518434
158.46227477810172
158.42025069153874
129.5450087991082
113.2615805895766
105.39411919398175
102.04306449648274
100.75131152586913
100.29244489407999
100.14075153780625
100.09391436228319
100.08040285116226
100.07675833793499
100.07583613780396
100.07561601869338
100.07556626429812
100.07555614598911
100.07555652944102
100.07556570281834
100.07560028838782
100.07572350577804
100.07615464321259
100.07763617222093
100.08262124268245
100.09898312913596
100.15110817636068
100.31124300859184
100.781533159996
102.08627687383476
105.4500912739535
113.33025829413057
129.6332297039436
158.5612162667801
158.42985837174467
129.56637554825312
113.30251295209843
105.4617364721956
102.14000614358116
100.87405439403979
100.4334772964317
100.29244473005245
100.25081403872984
100.23944777990201
100.23656057748474
100.23587263519362
100.23571750131366
100.23568432538464
100.23567816557401
100.23567938232141
100.23568873706887
100.23572338326619
100.23584662871765
100.23627780505643
100.23775946850506
100.24274510177005
100.25910919924122
100.31124306340625
100.4714133917413
100.94184612137359
102.247158264566
105.6132027773277
113.50183008704396
129.83528852352327
158.86509608425854
158.47450493776668
129.6609218718784
113.4721834934432
105.72075587978101
102.48237876876445
101.27788053799452
100.87405411497532
100.75131168080367
100.71727104084641
100.70857500543931
100.7065050416203
100.70604062092674
100.70594136013118
100.70592117457763
100.7059178750024
100.7059197663367
100.7059292216313
100.70596389812427
100.70608713551964
100.7065184753349
100.70800084943836
100.7129890222372
100.72936274117284
100.78153370484718
100.94184615369754
101.41282385917194
102.72020306071366
106.09394043319966
114.01019060319437
130.43707420905315
159.75632460864682
158.66827159269093
130.046236200137
114.10899142204052
106.60991772420743
103.56661731219509
102.48237956758763
102.1400061008141
102.04306065434326
102.01808231353534
102.01213161805356
102.01080146813972
102.01051882235826
102.01046156074369
102.01045064874064
102.01044892267691
102.01045113962019
102.01046081803597
102.01049562418699
102.01061910775535
102.01105119390498
102.01253653552071
102.01753575517665
102.03395125545643
102.08627679884644
102.24715718821002
102.72020168032684
104.03498362996643
107.43456999316017
115.43738267486066
132.1349990778683
162.2184070505959
159.43288415367377
131.44676367972153
116.21036566108646
109.28621063559048
106.6099330511006
105.72075942728645
105.46174334114173
105.39412575062383
105.37795617785227
105.37434780869145
105.37358519946136
105.37343047574085
105.37340019778559
105.3733946896453
105.3733945880886
105.37339691561074
105.3734065992877
105.37344134718401
105.37356580603698
105.37400187448466
105.37550076851043
105.38054904219415
105.39714160106503
105.45010045558358
105.61320976485759
106.09394595136415
107.43457737492768
110.91782466151278
119.17705375311537
136.59951585824734
168.502502710341
162.07502273553976
135.8184031062622
122.11939342596183
116.21035433112714
114.10900788828928
113.47219726007782
113.3025306549362
113.26159934103255
113.25244129246386
113.25050734133887
113.25011586197768
113.25004070621894
113.25002715363604
113.25002361573168
113.25002377837664
113.25002685722706
113.25003709415684
113.25007340046157
113.25020221941888
113.25065429925075
113.25221125560141
113.25746894889446
113.27479425569575
113.33027088877833
113.50184437061418
114.01019837767805
115.43739096915674
119.177062123578
128.13812970073323
147.29434863691733
182.9431076304312
169.71873258119166
147.10678078257914
135.818392261165
131.4467581182267
130.0462673869269
129.66095633432488
129.5663684138782
129.54501105026603
129.540482596023
129.5395667232091
129.5393877112286
129.53935329648618
129.53934696090434
129.53934725366753
129.53934742443312
129.53935027328208
129.53936106989156
129.5394030277332
129.53955270615046
129.5400757067875
129.5418814835439
129.5479954687831
129.56821773402694
129.63324234707258
129.83530165089414
130.43708144304316
132.1350015153698
136.59953386422865
147.29434981587423
169.98711952468832
211.91447129701658
188.04683883192314
169.71871319346658
162.07501629452787
159.43288722303453
158.6682633141907
158.47450816839077
158.4298654639313
158.42026845604522
158.4183071640282
158.41792065723826
158.41784903613754
158.4178364027573
158.41783349575772
158.41783250002834
158.41783445665465
158.4178392330719
158.41785846991115
158.41792473475687
158.4181577420335
158.41897456244845
158.4217852310389
158.43124372170487
158.46229094537108
158.561219921742
158.8650937003396
159.75632331261144
162.21839803633875
168.50250580340983
182.94309442032753
211.9144558514224
259.46496055523534
