# vtk DataFile Version 2.0
Unstructured Grid Example
ASCII
DATASET UNSTRUCTURED_GRID

POINTS 961 float
0.150000006 -0.00839745998 0
0.146666661 -0.00839745998 0
0.143333331 -0.00839745998 0
0.140000001 -0.00839745998 0
0.13666667 -0.00839745998 0
0.13333334 -0.00839745998 0
0.129999995 -0.00839745998 0
0.126666665 -0.00839745998 0
0.123333335 -0.00839745998 0
0.119999997 -0.00839745998 0
0.116666667 -0.00839745998 0
0.113333337 -0.00839745998 0
0.109999999 -0.00839745998 0
0.106666669 -0.00839745998 0
0.103333332 -0.00839745998 0
0.100000001 -0.00839745998 0
0.0966666639 -0.00839745998 0
0.0933333337 -0.00839745998 0
0.0900000036 -0.00839745998 0
0.086666666 -0.00839745998 0
0.0833333358 -0.00839745998 0
0.0799999982 -0.00839745998 0
0.0766666681 -0.00839745998 0
0.0733333305 -0.00839745998 0
0.0700000003 -0.00839745998 0
0.0666666701 -0.00839745998 0
0.0633333325 -0.00839745998 0
0.0599999987 -0.00839745998 0
0.0566666685 -0.00839745998 0
0.0533333346 -0.00839745998 0
0.0500000007 -0.00839745998 0
0.148333326 -0.0112842107 0
0.144999996 -0.0112842107 0
0.141666666 -0.0112842107 0
0.138333336 -0.0112842107 0
0.135000005 -0.0112842107 0
0.13166666 -0.0112842107 0
0.12833333 -0.0112842107 0
0.125 -0.0112842107 0
0.12166667 -0.0112842107 0
0.118333332 -0.0112842107 0
0.115000002 -0.0112842107 0
0.111666664 -0.0112842107 0
0.108333334 -0.0112842107 0
0.104999997 -0.0112842107 0
0.101666667 -0.0112842107 0
0.0983333364 -0.0112842107 0
0.0949999988 -0.0112842107 0
0.0916666687 -0.0112842107 0
0.088333331 -0.0112842107 0
0.0850000009 -0.0112842107 0
0.0816666633 -0.0112842107 0
0.0783333331 -0.0112842107 0
0.075000003 -0.0112842107 0
0.0716666654 -0.0112842107 0
0.0683333352 -0.0112842107 0
0.0649999976 -0.0112842107 0
0.0616666675 -0.0112842107 0
0.0583333336 -0.0112842107 0
0.0549999997 -0.0112842107 0
0.0516666658 -0.0112842107 0
0.0483333319 -0.0112842107 0
0.146666661 -0.0141709624 0
0.143333331 -0.0141709624 0
0.140000001 -0.0141709624 0
0.13666667 -0.0141709624 0
0.13333334 -0.0141709624 0
0.129999995 -0.0141709624 0
0.126666665 -0.0141709624 0
0.123333335 -0.0141709624 0
0.119999997 -0.0141709624 0
0.116666667 -0.0141709624 0
0.113333337 -0.0141709624 0
0.109999999 -0.0141709624 0
0.106666669 -0.0141709624 0
0.103333332 -0.0141709624 0
0.100000001 -0.0141709624 0
0.0966666639 -0.0141709624 0
0.0933333337 -0.0141709624 0
0.0900000036 -0.0141709624 0
0.086666666 -0.0141709624 0
0.0833333358 -0.0141709624 0
0.0799999982 -0.0141709624 0
0.0766666681 -0.0141709624 0
0.0733333305 -0.0141709624 0
0.0700000003 -0.0141709624 0
0.0666666701 -0.0141709624 0
0.0633333325 -0.0141709624 0
0.0599999987 -0.0141709624 0
0.0566666685 -0.0141709624 0
0.0533333346 -0.0141709624 0
0.0500000007 -0.0141709624 0
0.0466666669 -0.0141709624 0
0.144999996 -0.0170577131 0
0.141666666 -0.0170577131 0
0.138333336 -0.0170577131 0
0.135000005 -0.0170577131 0
0.13166666 -0.0170577131 0
0.12833333 -0.0170577131 0
0.125 -0.0170577131 0
0.12166667 -0.0170577131 0
0.118333332 -0.0170577131 0
0.115000002 -0.0170577131 0
0.111666664 -0.0170577131 0
0.108333334 -0.0170577131 0
0.104999997 -0.0170577131 0
0.101666667 -0.0170577131 0
0.0983333364 -0.0170577131 0
0.0949999988 -0.0170577131 0
0.0916666687 -0.0170577131 0
0.088333331 -0.0170577131 0
0.0850000009 -0.0170577131 0
0.0816666633 -0.0170577131 0
0.0783333331 -0.0170577131 0
0.075000003 -0.0170577131 0
0.0716666654 -0.0170577131 0
0.0683333352 -0.0170577131 0
0.0649999976 -0.0170577131 0
0.0616666675 -0.0170577131 0
0.0583333336 -0.0170577131 0
0.0549999997 -0.0170577131 0
0.0516666658 -0.0170577131 0
0.0483333319 -0.0170577131 0
0.0450000018 -0.0170577131 0
0.143333331 -0.0199444648 0
0.140000001 -0.0199444648 0
0.13666667 -0.0199444648 0
0.13333334 -0.0199444648 0
0.129999995 -0.0199444648 0
0.126666665 -0.0199444648 0
0.123333335 -0.0199444648 0
0.119999997 -0.0199444648 0
0.116666667 -0.0199444648 0
0.113333337 -0.0199444648 0
0.109999999 -0.0199444648 0
0.106666669 -0.0199444648 0
0.103333332 -0.0199444648 0
0.100000001 -0.0199444648 0
0.0966666639 -0.0199444648 0
0.0933333337 -0.0199444648 0
0.0900000036 -0.0199444648 0
0.086666666 -0.0199444648 0
0.0833333358 -0.0199444648 0
0.0799999982 -0.0199444648 0
0.0766666681 -0.0199444648 0
0.0733333305 -0.0199444648 0
0.0700000003 -0.0199444648 0
0.0666666701 -0.0199444648 0
0.0633333325 -0.0199444648 0
0.0599999987 -0.0199444648 0
0.0566666685 -0.0199444648 0
0.0533333346 -0.0199444648 0
0.0500000007 -0.0199444648 0
0.0466666669 -0.0199444648 0
0.043333333 -0.0199444648 0
0.141666666 -0.0228312165 0
0.138333336 -0.0228312165 0
0.135000005 -0.0228312165 0
0.13166666 -0.0228312165 0
0.12833333 -0.0228312165 0
0.125 -0.0228312165 0
0.12166667 -0.0228312165 0
0.118333332 -0.0228312165 0
0.115000002 -0.0228312165 0
0.111666664 -0.0228312165 0
0.108333334 -0.0228312165 0
0.104999997 -0.0228312165 0
0.101666667 -0.0228312165 0
0.0983333364 -0.0228312165 0
0.0949999988 -0.0228312165 0
0.0916666687 -0.0228312165 0
0.088333331 -0.0228312165 0
0.0850000009 -0.0228312165 0
0.0816666633 -0.0228312165 0
0.0783333331 -0.0228312165 0
0.075000003 -0.0228312165 0
0.0716666654 -0.0228312165 0
0.0683333352 -0.0228312165 0
0.0649999976 -0.0228312165 0
0.0616666675 -0.0228312165 0
0.0583333336 -0.0228312165 0
0.0549999997 -0.0228312165 0
0.0516666658 -0.0228312165 0
0.0483333319 -0.0228312165 0
0.0450000018 -0.0228312165 0
0.0416666679 -0.0228312165 0
0.140000001 -0.0257179681 0
0.13666667 -0.0257179681 0
0.13333334 -0.0257179681 0
0.129999995 -0.0257179681 0
0.126666665 -0.0257179681 0
0.123333335 -0.0257179681 0
0.119999997 -0.0257179681 0
0.116666667 -0.0257179681 0
0.113333337 -0.0257179681 0
0.109999999 -0.0257179681 0
0.106666669 -0.0257179681 0
0.103333332 -0.0257179681 0
0.100000001 -0.0257179681 0
0.0966666639 -0.0257179681 0
0.0933333337 -0.0257179681 0
0.0900000036 -0.0257179681 0
0.086666666 -0.0257179681 0
0.0833333358 -0.0257179681 0
0.0799999982 -0.0257179681 0
0.0766666681 -0.0257179681 0
0.0733333305 -0.0257179681 0
0.0700000003 -0.0257179681 0
0.0666666701 -0.0257179681 0
0.0633333325 -0.0257179681 0
0.0599999987 -0.0257179681 0
0.0566666685 -0.0257179681 0
0.0533333346 -0.0257179681 0
0.0500000007 -0.0257179681 0
0.0466666669 -0.0257179681 0
0.043333333 -0.0257179681 0
0.0399999991 -0.0257179681 0
0.138333336 -0.0286047198 0
0.135000005 -0.0286047198 0
0.13166666 -0.0286047198 0
0.12833333 -0.0286047198 0
0.125 -0.0286047198 0
0.12166667 -0.0286047198 0
0.118333332 -0.0286047198 0
0.115000002 -0.0286047198 0
0.111666664 -0.0286047198 0
0.108333334 -0.0286047198 0
0.104999997 -0.0286047198 0
0.101666667 -0.0286047198 0
0.0983333364 -0.0286047198 0
0.0949999988 -0.0286047198 0
0.0916666687 -0.0286047198 0
0.088333331 -0.0286047198 0
0.0850000009 -0.0286047198 0
0.0816666633 -0.0286047198 0
0.0783333331 -0.0286047198 0
0.075000003 -0.0286047198 0
0.0716666654 -0.0286047198 0
0.0683333352 -0.0286047198 0
0.0649999976 -0.0286047198 0
0.0616666675 -0.0286047198 0
0.0583333336 -0.0286047198 0
0.0549999997 -0.0286047198 0
0.0516666658 -0.0286047198 0
0.0483333319 -0.0286047198 0
0.0450000018 -0.0286047198 0
0.0416666679 -0.0286047198 0
0.038333334 -0.0286047198 0
0.13666667 -0.0314914696 0
0.13333334 -0.0314914696 0
0.129999995 -0.0314914696 0
0.126666665 -0.0314914696 0
0.123333335 -0.0314914696 0
0.119999997 -0.0314914696 0
0.116666667 -0.0314914696 0
0.113333337 -0.0314914696 0
0.109999999 -0.0314914696 0
0.106666669 -0.0314914696 0
0.103333332 -0.0314914696 0
0.100000001 -0.0314914696 0
0.0966666639 -0.0314914696 0
0.0933333337 -0.0314914696 0
0.0900000036 -0.0314914696 0
0.086666666 -0.0314914696 0
0.0833333358 -0.0314914696 0
0.0799999982 -0.0314914696 0
0.0766666681 -0.0314914696 0
0.0733333305 -0.0314914696 0
0.0700000003 -0.0314914696 0
0.0666666701 -0.0314914696 0
0.0633333325 -0.0314914696 0
0.0599999987 -0.0314914696 0
0.0566666685 -0.0314914696 0
0.0533333346 -0.0314914696 0
0.0500000007 -0.0314914696 0
0.0466666669 -0.0314914696 0
0.043333333 -0.0314914696 0
0.0399999991 -0.0314914696 0
0.0366666652 -0.0314914696 0
0.135000005 -0.0343782231 0
0.13166666 -0.0343782231 0
0.12833333 -0.0343782231 0
0.125 -0.0343782231 0
0.12166667 -0.0343782231 0
0.118333332 -0.0343782231 0
0.115000002 -0.0343782231 0
0.111666664 -0.0343782231 0
0.108333334 -0.0343782231 0
0.104999997 -0.0343782231 0
0.101666667 -0.0343782231 0
0.0983333364 -0.0343782231 0
0.0949999988 -0.0343782231 0
0.0916666687 -0.0343782231 0
0.088333331 -0.0343782231 0
0.0850000009 -0.0343782231 0
0.0816666633 -0.0343782231 0
0.0783333331 -0.0343782231 0
0.075000003 -0.0343782231 0
0.0716666654 -0.0343782231 0
0.0683333352 -0.0343782231 0
0.0649999976 -0.0343782231 0
0.0616666675 -0.0343782231 0
0.0583333336 -0.0343782231 0
0.0549999997 -0.0343782231 0
0.0516666658 -0.0343782231 0
0.0483333319 -0.0343782231 0
0.0450000018 -0.0343782231 0
0.0416666679 -0.0343782231 0
0.038333334 -0.0343782231 0
0.0350000001 -0.0343782231 0
0.13333334 -0.0372649729 0
0.129999995 -0.0372649729 0
0.126666665 -0.0372649729 0
0.123333335 -0.0372649729 0
0.119999997 -0.0372649729 0
0.116666667 -0.0372649729 0
0.113333337 -0.0372649729 0
0.109999999 -0.0372649729 0
0.106666669 -0.0372649729 0
0.103333332 -0.0372649729 0
0.100000001 -0.0372649729 0
0.0966666639 -0.0372649729 0
0.0933333337 -0.0372649729 0
0.0900000036 -0.0372649729 0
0.086666666 -0.0372649729 0
0.0833333358 -0.0372649729 0
0.0799999982 -0.0372649729 0
0.0766666681 -0.0372649729 0
0.0733333305 -0.0372649729 0
0.0700000003 -0.0372649729 0
0.0666666701 -0.0372649729 0
0.0633333325 -0.0372649729 0
0.0599999987 -0.0372649729 0
0.0566666685 -0.0372649729 0
0.0533333346 -0.0372649729 0
0.0500000007 -0.0372649729 0
0.0466666669 -0.0372649729 0
0.043333333 -0.0372649729 0
0.0399999991 -0.0372649729 0
0.0366666652 -0.0372649729 0
0.0333333351 -0.0372649729 0
0.13166666 -0.0401517227 0
0.12833333 -0.0401517227 0
0.125 -0.0401517227 0
0.12166667 -0.0401517227 0
0.118333332 -0.0401517227 0
0.115000002 -0.0401517227 0
0.111666664 -0.0401517227 0
[...]
POINT_DATA 961
SCALARS Temp float 1
LOOKUP_TABLE default
604.1100885118583
564.7852356420522
528.1035167263979
494.57710995226074
464.3670707896452
437.51949287610023
413.9868173939038
393.643523445306
376.30089955569935
361.72374399416145
349.64686945335507
339.7907424931643
331.87605978839804
325.6363727889867
320.8283893212599
317.2403431243074
314.698113683407
313.0696704694319
312.2678992305149
312.25217917387994
313.02880210362764
314.6502987735903
317.2135985475887
320.85695529330303
325.7553684322636
332.11464602813606
340.1640792543866
350.1483866236671
362.3209185422671
376.94403860291743
394.41927178936515
564.7852464428286
525.2444930020233
488.8986251376452
455.91486794785425
426.3906879502345
400.3227894108515
377.62105366964335
358.12243446349765
341.60749332746224
327.81709950918207
316.4692430439694
307.27446579272384
299.9500618324568
294.2317987558509
289.8837044563781
286.70544693404196
284.53785171337057
283.2666630700168
282.8248117968879
283.19348721650334
284.40203379443403
286.52669169587864
289.6881106038473
294.04743382408805
299.8008248639083
307.17257407100334
316.40675707857235
327.75856868642734
341.48640339991954
357.8508471603784
376.9440576632172
528.1034717998657
488.898601225561
453.0769822650817
420.77080190564294
392.021881831842
366.7819386319537
344.922770496836
326.24998987884715
310.5198218229133
297.456044780776
286.76620504982554
278.1568669935248
271.3469192580518
266.07851674266044
262.1260617366859
259.3028367416505
257.46590020697226
256.51925627136416
256.41569803385664
257.15740277599525
258.7953456769895
261.427461609094
265.1954623925356
270.28002672168475
276.89443223849486
285.27645872202044
295.6787703844433
308.3580519743802
323.56140951604755
341.4863950415025
362.3209309590911
494.57704663006365
455.91482792279766
420.770797474237
389.2374675168002
361.3142708076435
336.9152772945837
315.8803871534374
297.9907805631609
282.9851937259845
270.5767052615524
260.46835824151105
252.36777297612184
245.99936868928563
241.1147543157364
237.5007121599746
234.98531577460193
233.44223467620566
232.79346381894717
233.01077943740498
234.11591733911197
236.17950515354997
239.31865956449337
243.69303247182216
249.4991197541696
256.96285003949436
266.33013325521006
277.85574250604674
291.78958284215423
308.3580698489483
327.7585815762958
350.14837843987425
464.36700054902406
426.3906422719299
392.0218516115536
361.3143753094003
334.2313075564533
310.65566747444797
290.4028356438318
273.2363274371188
258.8840362117061
247.0540750328525
237.4500055229503
229.78439427673683
223.79019978709835
219.2303800539795
215.90520010404248
213.6578371235594
212.37820411681224
212.0053831965867
212.5287159831287
213.9876067900445
216.46998102786543
220.10928234859253
225.07971449001323
231.58972215824338
239.8734191592431
250.17995221917155
262.7609152906924
277.8557345371794
295.6787644237481
316.4067570295252
340.1640835778629
437.51941188507686
400.3228454181581
366.78201141986045
336.91523728518376
310.6556501656982
287.8616691438611
268.3312110569593
251.81670085434436
238.04091861048988
226.71203285064476
217.53807628990882
210.23934314276485
204.55928629374208
200.2731749257488
197.1950156950909
195.18268182417805
194.14141839423954
194.02601202595773
194.84156946697732
196.642962009146
199.5328274419194
203.6579290499537
209.2036601130893
216.38666432484519
225.44522201320368
236.627845093498
250.17994672873
266.33013504067577
285.27646448505425
307.1725509729136
332.1146458114185
413.98683712533875
377.6210892859468
344.92283363511604
315.88033668787693
290.4028096701638
268.3312011891907
249.45227147333495
233.51329328413954
220.2367076091755
209.33468100020085
200.5224698914746
193.53001751605606
188.11215519263325
184.05669510785415
181.19097142642462
179.3866022775587
178.5628325130703
178.68844711653037
179.7822896544834
181.91235801267746
185.193344354056
189.78236434497947
195.8728452853614
203.68630446498773
213.46205782149806
225.44521581598045
239.87340682726852
256.96283269424544
276.8944354006065
299.8008248013091
325.7553756265612
393.64354216922317
358.12246661303504
326.2499136404702
297.99072731616945
273.23633626172557
251.81672604212017
233.51328498551553
218.0728685476426
205.22150933437874
194.6782033124709
186.16711662486114
179.42882798178508
174.22965965704975
170.36954158639134
167.68819651446807
166.06970464205128
165.44570516002503
165.79709798950609
167.15433977462465
169.59620590172625
173.24687007025594
178.27110340365866
184.86757369318516
193.2599526920189
203.68629950743264
216.3866563009893
231.5897277982931
249.49912234649906
270.28001088638035
294.04741370517064
320.8569429118354
376.30090837423114
341.6075294325399
310.5197848876478
282.9851800775593
258.88404479927135
238.04089551549455
220.23669731755766
205.22153712709456
192.72785841453663
182.48315286297898
174.22146235550971
167.69405367308872
162.67831860972944
158.98540015178935
156.46611850684423
155.01550506443348
154.5758477625839
155.13824550930482
156.74268397679728
159.47648489434127
163.47095021211746
168.89616512377492
175.9537465425577
184.86757879675068
195.87285088619973
209.20366239570413
225.07971369767222
243.69302761124624
265.1954645614033
289.6881210171169
317.21361802728387
361.72379627858413
327.8170370262736
297.456015908982
270.5766947200235
247.05408424734168
226.71203303796224
209.33469411922772
194.6781923114546
182.4831444317272
172.4862454889398
164.43160116845843
158.08062536467418
153.22088379003216
149.67347949600799
147.2988944851734
146.00149657684224
145.7324591066427
146.49122688705737
148.32536901734335
151.32874193324506
155.63779100314935
161.4259880828844
168.89616093835286
178.27110374030494
189.78236267507896
203.65792568277192
220.10927764226733
239.31863944923208
261.42744644649497
286.526674709437
314.65029104454743
349.6469490775545
316.46919173632585
286.76618240686355
260.4683740162953
237.44998859142066
217.53807689367096
200.52248332992275
186.1671212706498
174.22147136792228
164.43159959811237
156.55107300371938
150.35056935079976
145.6266249854514
142.20885691295788
139.9658982772801
138.80983310356697
138.6990676193877
139.63968789379945
141.68512847939755
144.9340654963004
149.52648895020104
155.63780044078132
163.47095177015774
173.24686622750738
185.19333814994937
199.53282808006716
216.46997912256322
236.1795028235855
258.79535120152724
284.4020408214137
313.02879073917757
339.79068483631687
307.27444070979436
278.15686902105415
252.36779076253225
229.78437727760956
210.2393583576083
193.53000877523604
179.42883193291843
167.69404056864994
158.08062384145686
150.3505810252279
144.2826527579261
139.6809341732029
136.38211410761875
134.2614852195063
133.237317918301
133.2737617808277
134.38205965278445
136.62007229186855
140.0899656105979
144.93407390911838
151.3287473086222
159.47648246965517
169.59621762797326
181.91236989181672
196.64297542128182
213.98760000826704
234.11590947531215
257.1574059965028
283.1934906181103
312.25219268212857
331.876026110262
299.95004920049513
271.3469319458517
245.99935031334772
223.79020294750188
204.55930735385778
188.11215064315556
174.2296670580884
162.67831498728012
153.22089047227504
145.6266189066094
139.68092987944075
135.1939896647785
132.0081505293971
130.00395401548175
129.1045349763391
129.2784986125836
130.54104286721534
132.95333256197742
136.62006273108628
141.6851258613348
148.32537680840096
156.742675450637
167.15433715479193
179.78228590176658
194.84156489900982
212.52871420906442
233.0107779516985
256.4157058748617
282.82478962364587
312.2679031870401
325.6363402068633
294.23179846548555
266.07854366855213
241.1147373174921
219.23038645058242
200.27315597823033
184.0566999883184
170.36953294944868
158.98539717609532
149.67348810705045
142.20885029601752
136.38211638676512
132.00814948170807
128.93365742041112
127.04317770958322
126.26360913961051
126.56698624528973
127.97155873494432
130.54104122924954
134.38206267898843
139.6396882518213
146.4912319908119
155.13824502019148
165.7971052661499
178.68845762742535
194.0260064239996
212.00537721463277
232.79345775220602
256.5192578698859
283.26666619500344
313.0696687450591
320.82838267613926
289.883719658662
262.126040936249
237.50070881458325
215.9052251888357
197.19501307456525
181.19098505807983
167.68819365104173
156.46611703030874
147.29889288174155
139.9658990801719
134.2614882242636
130.0039524434478
127.04318015451203
125.26672871123584
124.60438456180307
125.03089842648667
126.56698485656179
129.2784956988414
133.27375909095062
138.69906824200956
145.73245650569936
154.5758391720348
165.44570332099372
178.56283018699824
194.1414174508572
212.3782025810069
233.44223449770672
257.4658818982734
284.53784931521335
314.6981072141063
317.24034049531366
286.70546645609255
259.3028246559994
234.98532233023585
213.65781781080938
195.18268229866584
179.3865878134266
166.069707485813
155.01551092582676
146.00149601168164
138.80983508679492
133.23731195344837
129.10453642505462
126.26360653457178
124.60438470715478
124.05895742074942
124.60438557422108
126.26360770211635
129.10453909462487
133.23731486556525
138.80983200509564
146.00150152070538
155.01550598140446
166.06971404315195
179.3865952702995
195.18267583325147
213.65783240063095
234.9853114528971
259.3028427755298
286.7054338401957
317.24034323355016
314.69813595640244
284.53782822145786
257.46590761752293
233.4422590381169
212.378198921505
194.14143479168087
178.5628313482628
165.44571417563637
154.5758393748064
145.73246510509705
138.69907595073394
133.27375964155078
129.27850393569489
126.56698602697227
125.03089938753335
124.6043862561563
125.26673015808959
127.04317666444503
130.00395440348657
134.26148436727522
139.96589433688516
147.29889487775992
156.46610989215662
167.6881945759098
181.19097167168786
197.19501793543412
215.90520460520523
237.50068662738417
262.1260596853602
289.88368853716844
320.82838553770836
313.06970160458354
283.26664633528156
256.519269366749
232.7934406593719
212.00538387744191
194.02599728363808
178.6884496380932
165.79711075011923
155.13823829067644
146.49123561389573
139.63968451454133
134.3820592534284
130.54103944495546
127.97155728325623
126.56698759866316
126.26360945868957
127.04317828660432
128.93365936038632
132.00815160154852
136.3821138045118
142.20885465123877
149.6734836905715
158.98540240798923
170.3695388300439
184.0566937108525
200.27316791425727
219.23037533525
241.11475138226297
266.078509265092
294.2317944238231
325.63637136607696
312.2678678225257
282.82480255430727
256.4157179893744
233.0107602734594
212.52872170742404
194.8415557697653
179.782289479024
167.15432969921804
156.74267918193138
148.32538059328343
141.6851218954934
136.62006948766066
132.9533307294417
130.54104142943038
129.2784984508406
129.10453505817054
130.00395173578303
132.0081522459661
135.1939874593235
139.68092757865253
145.62662270856103
153.22088753629242
162.6783197329527
174.229660497393
188.11216099010488
204.55929621525038
223.79019115287542
245.99937574338492
271.3469117549687
299.9500585449584
331.8760691514377
312.2521734298468
283.19350249890186
257.1573860728028
234.11591607886027
213.98758909844517
196.64296598593572
181.91237594234653
169.59620972056757
159.47648669161717
151.3287427879963
144.9340697686286
140.08996323449628
136.62007026539854
134.38206232305146
133.2737616249262
133.23731796954448
134.26148650196353
136.3821155154844
139.68093205042996
144.2826560868741
150.3505771164771
158.08062790938575
167.69404504613345
179.4288258884418
193.53001831603066
210.23934725406974
229.7843882237005
252.36775697340488
278.15686192447345
307.27446424549953
339.7907338277339
313.0288017710969
284.40205201086206
258.7953304761475
236.17951032411906
216.46996848688144
199.53283194270537
185.1933295182418
173.2468705429136
163.47095620422522
155.63779576031035
149.5264972927276
144.93406318877703
141.68512658669476
139.6396872641181
138.69906716383565
138.80983209330586
139.96589941012928
142.2088551413586
145.62662310670098
150.35057219406923
156.55107029011268
164.43160318564742
174.22146522206828
186.16712956174953
200.52247258475677
217.5380653926584
237.45001030197696
260.46835456623097
286.7661910867661
316.46923374180005
349.6468595959038
314.65030000062995
286.52665064835986
261.4274526694601
239.31862696148136
220.10926700109394
203.6579324119124
189.78235380877643
178.2711086551795
168.89615578531877
161.42598336309592
155.63778812981116
151.32873940426356
148.3253729291728
146.4912263631023
145.73245873173133
146.00149730868384
147.2988952950512
149.6734777924642
153.22088625374923
158.08062192980788
164.4316042604694
172.48624877721994
182.48313868708175
194.67819989006867
209.33468347933325
226.7120420607872
247.05405319792877
270.5766893731069
297.4560430276405
327.81710472882804
361.7237539885219
317.213647990855
289.68811894725945
265.1954927946085
243.69303529054562
225.07973644132545
209.20367036975713
195.87287255934848
184.86759989789246
175.95375661610151
168.89618972742883
163.47096181610274
159.47649647016593
156.74269637812958
155.13825762175355
154.57586048635932
155.01551795493245
156.46612887691603
158.9854098948574
162.67833131021735
167.6940611187539
174.22147412958864
182.48315538709645
192.72787220588188
205.221533033225
220.23669136406676
238.0409181417577
258.8840296927974
282.9851915867599
310.5198314606753
341.60745628532646
376.3008775870697
320.85694047326376
294.04744372857584
270.28001949549673
249.4991319500458
231.5897554449567
216.38666617930534
203.68632385267304
193.25996519535838
184.86758612538927
178.2711172358697
173.24688380656502
169.5962271881456
167.15435493355164
165.7971128953447
165.44572070067758
166.06971983783268
167.68820960519025
170.36955728478898
174.2296699958556
179.428842965282
186.16713083693529
194.67820887626385
205.22152527642405
218.0728672877459
233.51329999076043
251.81670378835162
273.2363367523746
297.990757901572
326.24998175694213
358.12242650118077
393.64352921710923
325.7553667150466
299.80084584833776
276.89443482994994
256.96284891066165
239.87340769169052
225.44523210813088
213.46207397255074
203.68630891118224
195.87286623391282
189.78237110314663
185.19335132994627
181.91236600399066
179.78229752346218
178.68845708389034
178.56284167647928
179.386609862383
181.19097870985408
184.05670477679283
188.11216081194715
193.53002695887608
200.52247175088036
209.33469282883485
220.23670403822626
233.5132884302517
249.45229249765106
268.33118845563746
290.40282169490257
315.8803810132705
344.9227638074616
377.6210569218193
413.98684130627504
332.11465477499087
307.1725377162139
285.27645321953037
266.33014372669794
250.17993737200158
236.62785174753384
225.44521647553205
216.3866591945874
209.20365675655336
203.65792593889145
199.53283332988082
196.64296111744147
194.84156859723814
194.02601202112905
194.14141839117403
195.18268078550284
197.19501691927272
200.27317222854876
204.55928791419225
210.23934454703814
217.5380708624635
226.71203702708593
238.0409081870896
251.81670548410708
268.3311824155565
287.8616613972724
310.6556697191373
336.91528996323854
366.7819591011699
400.32281054387096
437.51941168933854
340.16407838450203
316.4067311296734
295.67875681880764
277.85571137209723
262.7609086058351
250.17994559001752
239.87340035819693
231.58972109643744
225.079698521717
220.10926678296047
216.4699666032814
213.98759239220288
212.52870477590054
212.00537057331024
212.37819067111283
213.65782371127958
215.9051887654658
219.23036570184038
223.7901890171344
229.78437740702006
237.4499977332963
247.0540540218049
258.88401445100493
273.2363291172803
290.4028064831643
310.6556602837106
334.23132841328214
361.3142858801766
392.02179057140864
426.39060496846724
464.3669896438683
350.14839483208254
327.75860040772847
308.35810943136784
291.78960367957893
277.8557793634576
266.3301572092588
256.96287421178675
249.49914544879843
243.6930582679621
239.31869486123594
236.17953302312287
234.1159450624147
233.0108077755872
232.79349198451243
233.44226205289908
234.98534457945067
237.5007373769838
241.11478274617275
245.99939629963663
252.3677939261745
260.4683867684543
270.5767195871392
282.9852201055693
297.9907747149454
315.8803977880276
336.9153094610258
361.3143285338449
389.2374195694936
420.770754937405
455.91480236519885
494.57705422639214
362.32094342926035
341.48642779992286
323.5614259005146
308.3580842710107
295.6788022629887
285.27647798830697
276.89446929249294
270.28004854587186
265.1954845087804
261.4274846658506
258.7953685722596
257.1574291468887
256.41572236539645
256.5192798727371
257.46592359162094
259.3028614194391
262.12608338707145
266.0785409343663
271.3469373967412
278.1568923074297
286.7662173742196
297.456055082286
310.51985166199876
326.24998908838825
344.92278676841715
366.78197649928916
392.02181072531096
420.77074862107855
453.07693894261644
488.8985698318148
528.1034699763682
376.9440610364197
357.8508687894486
341.4864050086926
327.7585855140957
316.4067609461863
307.17257807975466
299.8008303073707
294.04743944046766
289.68812594127263
286.52669960451175
284.40204153442835
283.193495625458
282.8248201914132
283.2666711313605
284.53786104585714
286.70545333658816
289.8837138849194
294.23180760051497
299.9500649863702
307.27447600278265
316.46924049104655
327.81710805053893
341.60747219381284
358.12242803079226
377.62106588439616
400.3228233042015
426.3906198797108
455.9147987742374
488.898560804708
525.2444383196116
564.7851645708977
394.4192867745806
376.944032563479
362.3209269554443
350.1483942923561
340.16407411619423
332.11465819108923
325.7553655300054
320.85695327221225
317.21359733001816
314.6502968278267
313.0288039436465
312.2521788314806
312.2678986501152
313.0696696760728
314.6981140998788
317.240341090747
320.828389376415
325.6363679175605
331.876061524853
339.79073251022044
349.64685781120335
361.7237507271652
376.30087842491304
393.6435175065037
413.98683026909083
437.51940361006564
464.36699689951223
494.57704028299264
528.1034468442127
564.7851494832913
604.1097477562494
