# vtk DataFile Version 2.0
Unstructured Grid Example
ASCII
DATASET UNSTRUCTURED_GRID

POINTS 961 float
0.150000006 -0.00839745998 0
0.146666661 -0.00839745998 0
0.143333331 -0.00839745998 0
0.140000001 -0.00839745998 0
0.13666667 -0.00839745998 0
0.13333334 -0.00839745998 0
0.129999995 -0.00839745998 0
0.126666665 -0.00839745998 0
0.123333335 -0.00839745998 0
0.119999997 -0.00839745998 0
0.116666667 -0.00839745998 0
0.113333337 -0.00839745998 0
0.109999999 -0.00839745998 0
0.106666669 -0.00839745998 0
0.103333332 -0.00839745998 0
0.100000001 -0.00839745998 0
0.0966666639 -0.00839745998 0
0.0933333337 -0.00839745998 0
0.0900000036 -0.00839745998 0
0.086666666 -0.00839745998 0
0.0833333358 -0.00839745998 0
0.0799999982 -0.00839745998 0
0.0766666681 -0.00839745998 0
0.0733333305 -0.00839745998 0
0.0700000003 -0.00839745998 0
0.0666666701 -0.00839745998 0
0.0633333325 -0.00839745998 0
0.0599999987 -0.00839745998 0
0.0566666685 -0.00839745998 0
0.0533333346 -0.00839745998 0
0.0500000007 -0.00839745998 0
0.148333326 -0.0112842107 0
0.144999996 -0.0112842107 0
0.141666666 -0.0112842107 0
0.138333336 -0.0112842107 0
0.135000005 -0.0112842107 0
0.13166666 -0.0112842107 0
0.12833333 -0.0112842107 0
0.125 -0.0112842107 0
0.12166667 -0.0112842107 0
0.118333332 -0.0112842107 0
0.115000002 -0.0112842107 0
0.111666664 -0.0112842107 0
0.108333334 -0.0112842107 0
0.104999997 -0.0112842107 0
0.101666667 -0.0112842107 0
0.0983333364 -0.0112842107 0
0.0949999988 -0.0112842107 0
0.0916666687 -0.0112842107 0
0.088333331 -0.0112842107 0
0.0850000009 -0.0112842107 0
0.0816666633 -0.0112842107 0
0.0783333331 -0.0112842107 0
0.075000003 -0.0112842107 0
0.0716666654 -0.0112842107 0
0.0683333352 -0.0112842107 0
0.0649999976 -0.0112842107 0
0.0616666675 -0.0112842107 0
0.0583333336 -0.0112842107 0
0.0549999997 -0.0112842107 0
0.0516666658 -0.0112842107 0
0.0483333319 -0.0112842107 0
0.146666661 -0.0141709624 0
0.143333331 -0.0141709624 0
0.140000001 -0.0141709624 0
0.13666667 -0.0141709624 0
0.13333334 -0.0141709624 0
0.129999995 -0.0141709624 0
0.126666665 -0.0141709624 0
0.123333335 -0.0141709624 0
0.119999997 -0.0141709624 0
0.116666667 -0.0141709624 0
0.113333337 -0.0141709624 0
0.109999999 -0.0141709624 0
0.106666669 -0.0141709624 0
0.103333332 -0.0141709624 0
0.100000001 -0.0141709624 0
0.0966666639 -0.0141709624 0
0.0933333337 -0.0141709624 0
0.0900000036 -0.0141709624 0
0.086666666 -0.0141709624 0
0.0833333358 -0.0141709624 0
0.0799999982 -0.0141709624 0
0.0766666681 -0.0141709624 0
0.0733333305 -0.0141709624 0
0.0700000003 -0.0141709624 0
0.0666666701 -0.0141709624 0
0.0633333325 -0.0141709624 0
0.0599999987 -0.0141709624 0
0.0566666685 -0.0141709624 0
0.0533333346 -0.0141709624 0
0.0500000007 -0.0141709624 0
0.0466666669 -0.0141709624 0
0.144999996 -0.0170577131 0
0.141666666 -0.0170577131 0
0.138333336 -0.0170577131 0
0.135000005 -0.0170577131 0
0.13166666 -0.0170577131 0
0.12833333 -0.0170577131 0
0.125 -0.0170577131 0
0.12166667 -0.0170577131 0
0.118333332 -0.0170577131 0
0.115000002 -0.0170577131 0
0.111666664 -0.0170577131 0
0.108333334 -0.0170577131 0
0.104999997 -0.0170577131 0
0.101666667 -0.0170577131 0
0.0983333364 -0.0170577131 0
0.0949999988 -0.0170577131 0
0.0916666687 -0.0170577131 0
0.088333331 -0.0170577131 0
0.0850000009 -0.0170577131 0
0.0816666633 -0.0170577131 0
0.0783333331 -0.0170577131 0
0.075000003 -0.0170577131 0
0.0716666654 -0.0170577131 0
0.0683333352 -0.0170577131 0
0.0649999976 -0.0170577131 0
0.0616666675 -0.0170577131 0
0.0583333336 -0.0170577131 0
0.0549999997 -0.0170577131 0
0.0516666658 -0.0170577131 0
0.0483333319 -0.0170577131 0
0.0450000018 -0.0170577131 0
0.143333331 -0.0199444648 0
0.140000001 -0.0199444648 0
0.13666667 -0.0199444648 0
0.13333334 -0.0199444648 0
0.129999995 -0.0199444648 0
0.126666665 -0.0199444648 0
0.123333335 -0.0199444648 0
0.119999997 -0.0199444648 0
0.116666667 -0.0199444648 0
0.113333337 -0.0199444648 0
0.109999999 -0.0199444648 0
0.106666669 -0.0199444648 0
0.103333332 -0.0199444648 0
0.100000001 -0.0199444648 0
0.0966666639 -0.0199444648 0
0.0933333337 -0.0199444648 0
0.0900000036 -0.0199444648 0
0.086666666 -0.0199444648 0
0.0833333358 -0.0199444648 0
0.0799999982 -0.0199444648 0
0.0766666681 -0.0199444648 0
0.0733333305 -0.0199444648 0
0.0700000003 -0.0199444648 0
0.0666666701 -0.0199444648 0
0.0633333325 -0.0199444648 0
0.0599999987 -0.0199444648 0
0.0566666685 -0.0199444648 0
0.0533333346 -0.0199444648 0
0.0500000007 -0.0199444648 0
0.0466666669 -0.0199444648 0
0.043333333 -0.0199444648 0
0.141666666 -0.0228312165 0
0.138333336 -0.0228312165 0
0.135000005 -0.0228312165 0
0.13166666 -0.0228312165 0
0.12833333 -0.0228312165 0
0.125 -0.0228312165 0
0.12166667 -0.0228312165 0
0.118333332 -0.0228312165 0
0.115000002 -0.0228312165 0
0.111666664 -0.0228312165 0
0.108333334 -0.0228312165 0
0.104999997 -0.0228312165 0
0.101666667 -0.0228312165 0
0.0983333364 -0.0228312165 0
0.0949999988 -0.0228312165 0
0.0916666687 -0.0228312165 0
0.088333331 -0.0228312165 0
0.0850000009 -0.0228312165 0
0.0816666633 -0.0228312165 0
0.0783333331 -0.0228312165 0
0.075000003 -0.0228312165 0
0.0716666654 -0.0228312165 0
0.0683333352 -0.0228312165 0
0.0649999976 -0.0228312165 0
0.0616666675 -0.0228312165 0
0.0583333336 -0.0228312165 0
0.0549999997 -0.0228312165 0
0.0516666658 -0.0228312165 0
0.0483333319 -0.0228312165 0
0.0450000018 -0.0228312165 0
0.0416666679 -0.0228312165 0
0.140000001 -0.0257179681 0
0.13666667 -0.0257179681 0
0.13333334 -0.0257179681 0
0.129999995 -0.0257179681 0
0.126666665 -0.0257179681 0
0.123333335 -0.0257179681 0
0.119999997 -0.0257179681 0
0.116666667 -0.0257179681 0
0.113333337 -0.0257179681 0
0.109999999 -0.0257179681 0
0.106666669 -0.0257179681 0
0.103333332 -0.0257179681 0
0.100000001 -0.0257179681 0
0.0966666639 -0.0257179681 0
0.0933333337 -0.0257179681 0
0.0900000036 -0.0257179681 0
0.086666666 -0.0257179681 0
0.0833333358 -0.0257179681 0
0.0799999982 -0.0257179681 0
0.0766666681 -0.0257179681 0
0.0733333305 -0.0257179681 0
0.0700000003 -0.0257179681 0
0.0666666701 -0.0257179681 0
0.0633333325 -0.0257179681 0
0.0599999987 -0.0257179681 0
0.0566666685 -0.0257179681 0
0.0533333346 -0.0257179681 0
0.0500000007 -0.0257179681 0
0.0466666669 -0.0257179681 0
0.043333333 -0.0257179681 0
0.0399999991 -0.0257179681 0
0.138333336 -0.0286047198 0
0.135000005 -0.0286047198 0
0.13166666 -0.0286047198 0
0.12833333 -0.0286047198 0
0.125 -0.0286047198 0
0.12166667 -0.0286047198 0
0.118333332 -0.0286047198 0
0.115000002 -0.0286047198 0
0.111666664 -0.0286047198 0
0.108333334 -0.0286047198 0
0.104999997 -0.0286047198 0
0.101666667 -0.0286047198 0
0.0983333364 -0.0286047198 0
0.0949999988 -0.0286047198 0
0.0916666687 -0.0286047198 0
0.088333331 -0.0286047198 0
0.0850000009 -0.0286047198 0
0.0816666633 -0.0286047198 0
0.0783333331 -0.0286047198 0
0.075000003 -0.0286047198 0
0.0716666654 -0.0286047198 0
0.0683333352 -0.0286047198 0
0.0649999976 -0.0286047198 0
0.0616666675 -0.0286047198 0
0.0583333336 -0.0286047198 0
0.0549999997 -0.0286047198 0
0.0516666658 -0.0286047198 0
0.0483333319 -0.0286047198 0
0.0450000018 -0.0286047198 0
0.0416666679 -0.0286047198 0
0.038333334 -0.0286047198 0
0.13666667 -0.0314914696 0
0.13333334 -0.0314914696 0
0.129999995 -0.0314914696 0
0.126666665 -0.0314914696 0
0.123333335 -0.0314914696 0
0.119999997 -0.0314914696 0
0.116666667 -0.0314914696 0
0.113333337 -0.0314914696 0
0.109999999 -0.0314914696 0
0.106666669 -0.0314914696 0
0.103333332 -0.0314914696 0
0.100000001 -0.0314914696 0
0.0966666639 -0.0314914696 0
0.0933333337 -0.0314914696 0
0.0900000036 -0.0314914696 0
0.086666666 -0.0314914696 0
0.0833333358 -0.0314914696 0
0.0799999982 -0.0314914696 0
0.0766666681 -0.0314914696 0
0.0733333305 -0.0314914696 0
0.0700000003 -0.0314914696 0
0.0666666701 -0.0314914696 0
0.0633333325 -0.0314914696 0
0.0599999987 -0.0314914696 0
0.0566666685 -0.0314914696 0
0.0533333346 -0.0314914696 0
0.0500000007 -0.0314914696 0
0.0466666669 -0.0314914696 0
0.043333333 -0.0314914696 0
0.0399999991 -0.0314914696 0
0.0366666652 -0.0314914696 0
0.135000005 -0.0343782231 0
0.13166666 -0.0343782231 0
0.12833333 -0.0343782231 0
0.125 -0.0343782231 0
0.12166667 -0.0343782231 0
0.118333332 -0.0343782231 0
0.115000002 -0.0343782231 0
0.111666664 -0.0343782231 0
0.108333334 -0.0343782231 0
0.104999997 -0.0343782231 0
0.101666667 -0.0343782231 0
0.0983333364 -0.0343782231 0
0.0949999988 -0.0343782231 0
0.0916666687 -0.0343782231 0
0.088333331 -0.0343782231 0
0.0850000009 -0.0343782231 0
0.0816666633 -0.0343782231 0
0.0783333331 -0.0343782231 0
0.075000003 -0.0343782231 0
0.0716666654 -0.0343782231 0
0.0683333352 -0.0343782231 0
0.0649999976 -0.0343782231 0
0.0616666675 -0.0343782231 0
0.0583333336 -0.0343782231 0
0.0549999997 -0.0343782231 0
0.0516666658 -0.0343782231 0
0.0483333319 -0.0343782231 0
0.0450000018 -0.0343782231 0
0.0416666679 -0.0343782231 0
0.038333334 -0.0343782231 0
0.0350000001 -0.0343782231 0
0.13333334 -0.0372649729 0
0.129999995 -0.0372649729 0
0.126666665 -0.0372649729 0
0.123333335 -0.0372649729 0
0.119999997 -0.0372649729 0
0.116666667 -0.0372649729 0
0.113333337 -0.0372649729 0
0.109999999 -0.0372649729 0
0.106666669 -0.0372649729 0
0.103333332 -0.0372649729 0
0.100000001 -0.0372649729 0
0.0966666639 -0.0372649729 0
0.0933333337 -0.0372649729 0
0.0900000036 -0.0372649729 0
0.086666666 -0.0372649729 0
0.0833333358 -0.0372649729 0
0.0799999982 -0.0372649729 0
0.0766666681 -0.0372649729 0
0.0733333305 -0.0372649729 0
0.0700000003 -0.0372649729 0
0.0666666701 -0.0372649729 0
0.0633333325 -0.0372649729 0
0.0599999987 -0.0372649729 0
0.0566666685 -0.0372649729 0
0.0533333346 -0.0372649729 0
0.0500000007 -0.0372649729 0
0.0466666669 -0.0372649729 0
0.043333333 -0.0372649729 0
0.0399999991 -0.0372649729 0
0.0366666652 -0.0372649729 0
0.0333333351 -0.0372649729 0
0.13166666 -0.0401517227 0
0.12833333 -0.0401517227 0
0.125 -0.0401517227 0
0.12166667 -0.0401517227 0
0.118333332 -0.0401517227 0
0.115000002 -0.0401517227 0
0.111666664 -0.0401517227 0
[...]
POINT_DATA 961
SCALARS Temp float 1
LOOKUP_TABLE default
506.30424647332217
461.75072324313544
421.82656246653073
387.2493135320064
358.0321781221228
333.9343739008834
314.53309736613494
299.28621155006175
287.5901343699991
278.8316037218503
272.4284689064663
267.8579703987685
264.67295485546924
262.5075392283655
261.0748989334712
260.16035817783165
259.6124557104069
259.334451409623
259.2779826351728
259.439987003769
259.8633407126633
260.64098145440175
261.9225615839018
263.9219944212606
266.92347370591006
271.28337479451204
277.42537749400367
285.8273641988537
297.0015901400671
311.4770762017827
329.9618220537736
461.75073601889005
417.6458946652663
379.0545317486514
346.0290292944139
318.4344875418544
295.92317158445564
277.9945339168515
264.0548250265787
253.4738269198165
245.6323671844221
239.95821963013205
235.94905054718996
233.18381697813288
231.3244640518895
230.1112004833687
229.35417351826027
228.9243598153613
228.74576781734808
228.7904361065447
229.07707107145055
229.6734503393786
230.70201340218915
232.3473381536878
234.86340113852233
238.57798280394854
243.89146278937324
251.26748103241627
261.2148124555427
274.26174817148103
290.93271004266177
311.4770959306265
421.82651512655406
379.05450785728436
341.98096596113896
310.56248630578983
284.5460110410331
263.5021469443574
246.8774895733003
234.05078155679308
224.3854116295357
217.27187593440615
212.1580768255665
208.56755032962317
206.1068264604657
204.4644394693381
203.4047479339514
202.75925292168037
202.41802347654516
202.3230400627637
202.46472949274164
202.8822412121107
203.66731865469524
204.9708614115884
207.01053418306648
210.07696946384945
214.53580844486848
220.82261950889145
229.42845605974208
240.8749179041418
255.6769375713884
274.2617392347679
297.0016019419349
387.2492500834688
346.0289915274573
310.56248385185023
280.71754035368855
256.16453603218736
236.42187113371267
220.9081298149966
208.99554288145112
200.05689175047974
193.50267690086852
188.80645352266043
185.5191354009127
183.2734756144631
181.78164932705909
180.828509778048
180.26332273146645
179.99215120959076
179.97254122298986
180.21154815923924
180.76741012424657
181.7544641665252
183.35014001393603
185.80203205555515
189.4324233946757
194.63736084302693
201.8772804979434
211.6572718450737
224.49515496827794
240.87493526409355
261.21482573574076
285.8273557225653
358.03211276626837
318.4344477895306
284.5459862808205
256.1646265617245
232.91151287211582
214.27841868873966
199.67759087175367
188.4906613221309
180.11042566804355
173.9728737580569
169.57877577388692
166.50506530307175
164.4077220214347
163.0187878823058
162.13986098020825
161.6346583450835
161.42255458948995
161.47460579178107
161.8128639799838
162.51310823230267
163.71035558226387
165.6057434885705
168.47253267863502
172.65855387010185
178.58203709194186
186.7181888579151
197.5748778811836
211.6572641509867
229.42845052364075
251.26748025255557
277.42538259126667
333.9343027014458
295.9232199895956
263.5022101231869
236.42183409255725
214.27840335259054
196.55776034594425
182.6820020040175
172.0528065355725
164.08853410725106
158.2522825176989
154.0707293904343
151.14372563997182
149.14668769063078
147.82764717761725
147.00149462496194
146.54354216864218
146.38423414458228
146.50634594754447
146.9453055985907
147.79260539642962
149.2014912923839
151.39328500330063
154.66200195384755
159.37453196856615
165.96340577348144
174.91016055201334
186.7181843487156
201.8772821043041
220.82262603121984
243.89144007943688
271.28337179453246
314.5331126840479
277.9945644688631
246.87754623061318
220.90808490143388
199.67757014559615
182.68199518569486
169.36370404259932
159.15011834199657
151.48664640348363
145.86221384984864
141.82629688040848
138.99784736173208
137.06776833802002
135.79654711198313
135.00941186830812
134.59091092596208
134.48068908472112
134.6716152240929
135.21080923357377
136.20338868634138
137.81797540640184
140.29217081118503
143.93568789512796
149.12834405969792
156.3103685268956
165.9634004834846
178.5820264810767
194.63734584529834
214.53580931963205
238.5779817426593
266.9234817079851
299.2862291677984
264.05485558459594
234.05071369900435
208.99549913717297
188.49066486399244
172.052824569407
159.150113042824
149.23715169984493
141.78512628314002
136.30572464956745
132.36728451313556
129.6039358057849
127.71844960896124
126.48075916885553
125.72401696275301
125.34011045084638
125.27629930404562
125.53401675222442
126.17031715317796
127.30167716550389
129.10906689030497
131.8424762632287
135.82259016967353
141.436918185609
149.12834040753293
159.37452629494507
172.6585576371005
189.4324253754544
210.0769537266953
234.8633811420399
263.9219832388842
287.5901430087669
253.4738624236011
224.3853688700644
200.05687464431054
180.11043071171753
164.0885176412725
151.4866404239754
141.7851426901127
134.4779292662517
129.09550506858412
125.2211320539475
122.50045542072509
120.64507876688417
119.43194985482992
118.70023298469313
118.34762639770642
118.3276245893414
118.64876566005485
119.37626207233552
120.63564691266768
122.61728310708804
125.57997626789222
129.8513490876527
135.8225938196159
143.9356907630133
154.66200256208813
168.47253140017327
185.8020273632716
207.01053731134377
232.34734682149332
261.9225809185748
278.8316485390611
245.63230216051895
217.27184914933088
193.5026700199217
173.972885894949
158.25228143263897
145.86222313953093
136.30571907483554
129.09550079860622
123.77680688832781
119.94422425353024
117.25180871302736
115.41755847351583
114.22353563943652
113.51344291084543
113.1895428321218
113.210343912182
113.5901064506742
114.40048034022789
115.77387340133602
117.90739311425747
121.06562647423607
125.57997334267421
131.8424761378647
140.2921698513076
151.3932831050386
165.60574117590735
183.35012023417895
204.97084591785418
230.70199616981725
260.64097337015136
272.4285364760422
239.9581673841668
212.158058847071
188.80646255823874
169.5787608939811
154.07073021533873
141.82630787929753
132.3672861283609
125.22113677384037
119.94422356235609
116.13931767440432
113.46644722846821
111.64812247328756
110.4700656513366
109.77937679673364
109.48185060731159
109.5399366405248
109.97234763753664
110.85559658193829
112.32703770942983
114.58830719770965
117.90739816475389
122.61728408494349
129.10906423988476
137.81797124070246
149.20149055767794
163.7103528424987
181.75446192014937
203.66732425908802
229.67345833753404
259.86332810961096
267.85790905696757
235.94901816684376
208.56754811960423
185.51914946677806
166.50505172988008
151.14373359397936
138.9978397508901
129.60393778179886
122.5004475073617
117.25180818691557
113.46645218070469
110.8085004899834
109.00354764901607
107.83990358191403
107.16717405353167
106.89382869928016
106.98532871469494
107.46372353063411
108.40903575025511
109.9619942397038
112.32704195670443
115.77387620051853
120.63564537445531
127.30168405497281
136.203396547679
147.79261580041305
162.51310197904826
180.76740292810067
202.88224337719254
229.07707374618806
259.44000089720913
264.6729223658809
233.1838069065752
206.10684196091535
183.27345792264967
164.4077241445638
149.14670496995785
137.06776594134627
127.7184561902837
120.64507571196485
115.41756185344072
111.64811976245716
109.00354585665296
107.21144281651057
106.06190554598602
105.40634289442295
105.15521349520144
105.27621204559738
105.7938057479631
106.79044284035984
108.40903142565078
110.85559530095014
114.40048435081772
119.37625655256419
126.17031526939977
135.21080642989807
146.94530199748317
161.81286203906723
180.21154645134973
202.46473687788432
228.79041316229052
259.2779868886725
262.5075113326585
231.32446121477923
204.4644635346933
181.78163382178712
163.0187929517746
147.82763397720618
135.79654887578948
126.48075288011421
119.43194765579689
114.22354039005266
110.47006260792621
107.83990409066237
106.06190508320914
104.92734025998381
104.28887765629744
104.05843509103626
104.20533469583974
104.75576141754892
105.79380502198978
107.46372482072152
109.97234760264926
113.59010900196184
118.64876516950878
125.534021550733
134.67162271790573
146.50634116495283
161.47460031015441
179.97253532871986
202.32304197784262
228.74577156567696
259.33445030862356
261.0748950750601
230.11121796254236
203.40473083392394
180.82850944296413
162.1398815968019
147.00149230577242
135.00942231756736
125.72401558352071
118.7002326688266
113.51344190884052
109.77937701047347
107.1671753412396
105.40634232433757
104.28887847765348
103.66834201152658
103.45773045354726
103.62758348763153
104.20533414964083
105.27621081012099
106.98532735838776
109.5399367668389
113.21034227517521
118.32761920100982
125.27629775945736
134.48068671183992
146.38423269686405
161.42255348777056
179.99215087712187
202.41800561738816
228.92435610654883
259.6124474086606
260.16035769537535
229.35419524332056
202.75923980010785
180.2633274010044
161.6346420663592
146.54354242107408
134.5909009966679
125.34011163278885
118.3476294647396
113.18954222334895
109.4818514221705
106.89382578154331
105.15521390420766
104.05843407008396
103.45773050067267
103.26697946724907
103.45773081997085
104.05843451508085
105.15521507792883
106.89382711961696
109.48185002565549
113.18954543919587
118.34762657002815
125.34011624832272
134.59090653456246
146.543537763329
161.63465443235484
180.26331791815275
202.75925770879735
229.3541627325548
260.1603595400878
259.61247827380197
228.9243364245935
202.4180311037025
179.99217406053722
161.42255059763013
146.3842468750412
134.4806876306001
125.27630488682449
118.32761936383365
113.21034685218326
109.53994054475339
106.98532755753159
105.27621415067121
104.20533457994476
103.62758383420636
103.45773105943694
103.66834252130695
104.28887718331016
105.40634299174017
107.16717343612908
109.7793744408107
113.5134424073263
118.70022783875498
125.72401528103264
135.00941135466036
147.0014947796276
162.13986231355813
180.82848746731264
203.4047451449046
230.11118356126337
261.07489212788624
259.3344829133021
228.74575062564423
202.32305264549197
179.97251946359006
161.47460540827572
146.50633353945753
134.67161637485754
125.53402508593346
118.64876069951981
113.59011084205268
109.97234565591081
107.46372311794778
105.79380426917028
104.75576082772203
104.20533523747973
104.05843520177507
104.28887784998109
104.92734101032634
106.0619059330438
107.83990304733572
110.47006482241237
114.22353807032889
119.43195090423727
126.48075674764131
135.79654474017707
147.82764318094397
163.0187839779297
181.7816468495278
204.46443109528616
231.3244566245434
262.5075399993603
259.27794996622407
228.79042585154917
202.46474830030314
180.2115292772123
161.8128681962481
146.9452941205014
135.21080856646333
126.17030999838533
119.37625855653066
114.40048636742722
110.8555931866448
108.40903446732983
106.79044203718964
105.79380514519256
105.27621195344213
105.15521348328082
105.40634222104707
106.06190618951098
107.21144199675561
109.00354498597102
111.64812155281771
115.4175604769183
120.64507859649036
127.71845200352318
137.0677736227641
149.1466966128974
164.4077149947442
183.27348034208583
206.10682415760348
233.18381657838438
264.6729656189202
259.4399801427622
229.07708518263914
202.882223218532
180.76740816458587
162.51309191445458
147.79260749014637
136.2034008489328
127.30167817030213
120.63564779754658
115.77387356417675
112.32703964809032
109.96199313218955
108.40903483166682
107.46372464686846
106.9853286781024
106.89382869405677
107.16717448252018
107.83990406126009
109.00354689683348
110.8085019664538
113.46645039080795
117.25181045613036
122.50045016045098
129.6039343312615
138.99784659742681
151.1437257879346
166.5050619130662
185.51912115300325
208.56754393410907
235.94904496361664
267.8579681353217
259.8633384276388
229.67346891598058
203.6673025204126
181.7544684388425
163.7103428051767
149.20149310229775
137.81796445600864
129.10906686419176
122.61728677992828
117.90739536995092
114.58831143539743
112.32703664509916
110.8555957330155
109.97234735005989
109.53993637688107
109.48185044894086
109.77937721081237
110.47006507377006
111.6481218983782
113.46644841797227
116.13931659310595
119.94422557289059
125.2211334557962
132.36729192844874
141.8263010138856
154.070722840949
169.57877979769776
188.80644881101296
212.15807154798318
239.95821656640132
272.42846335794246
260.6409811626728
230.7019700960145
204.9708511408555
183.3501078246579
165.60573100993835
151.39328842580372
140.29216259624906
131.84247935030555
125.57997003625613
121.06562356469082
117.90739164858039
115.77387212625663
114.4004820918408
113.59010634249024
113.2103437679168
113.18954303673584
113.51344312630407
114.2235351406018
115.4175594488844
117.25180740955831
119.94422589499308
123.77680873699335
129.0954981577515
136.30572437145224
145.86221702856975
158.25229026998045
173.9728634486308
193.5026699328467
217.27188080025306
245.6323765495585
278.8316175961977
261.92261038131227
232.34734139442534
207.0105629370062
185.80203177481124
168.47254911560597
154.66200730098248
143.93570582816895
135.82260794235077
129.85135537741226
125.57999100562725
122.6172905016955
120.63565417604421
119.37626970267151
118.64877305624448
118.32763261978965
118.34763428289222
118.7002400072804
119.4319567231824
120.64508641658804
122.50046102440743
125.2211392949121
129.09550761608327
134.4779377523033
141.78514012957535
151.48663628145704
164.08853353886812
180.11041855614403
200.05688503667986
224.38541303887143
253.473793428296
287.5901142217483
263.92197848633805
234.86340955749844
210.07695926331965
189.43243148251585
172.6585803210744
159.3745326442367
149.1283582005581
141.4369270256724
135.82259874944265
131.84248595178158
129.10907635608913
127.30169040581106
126.17032766593428
125.53402699038669
125.27630969033852
125.34012066796623
125.72402669254251
126.48076959822833
127.71845817529902
129.60394608475826
132.36729424655985
136.30573038249761
141.7851370990615
149.23715243166384
159.1501244541113
172.05280865696986
188.4906663326213
208.99552676330828
234.05077631432482
264.05481742106144
299.2862139616494
266.9234695899809
238.57800230218723
214.5358068174919
194.63735982449313
178.5820262920022
165.9634133669392
156.3103810137644
149.12834761771742
143.93570218408703
140.29217646568992
137.81798106321645
136.20339486430697
135.2108151901637
134.67162250959723
134.4806959103962
134.5909171996481
135.00941824368434
135.79655401149304
137.06777394760525
138.9978543675637
141.82630074522805
145.86222251917746
151.48664687401165
159.1501181957883
169.36372056343
182.68198882585563
199.6775832091162
220.9081267868299
246.87748384875286
277.9945343645395
314.53311511010014
271.2833804814672
243.89142544693766
220.82261399201187
201.87729046430172
186.71817561715122
174.91016605362213
165.96340174113865
159.37452832583315
154.66199999690207
151.39328312242284
149.20149437484483
147.7926053762069
146.94530536304205
146.5063459351837
146.3842340675008
146.54354208330648
147.00149509069325
147.827646611569
149.14668871486285
151.14372651455585
154.07072788022614
158.25228551564325
164.08852985175542
172.05281156837916
182.68198498821258
196.5577582743798
214.27842355084505
236.42188343376964
263.5021646391965
295.9231872286887
333.93430165205115
277.42537845668676
251.26745368104386
229.42844362058682
211.65724253438765
197.57487168247397
186.71818281009524
178.5820213399029
172.6585507876312
168.47252004649962
165.6057310308617
163.71034379706575
162.51309625136648
161.8128538965463
161.47459505860854
161.42254351392967
161.6346475905198
162.13985060208591
163.01877675278402
164.40771217516567
166.50505348184964
169.57876797914884
173.97285988026354
180.11041187881727
188.49066138004193
199.67757153526406
214.2784153321973
232.9115328857378
256.16454900109187
284.54593103236743
318.43441202164735
358.03210221219825
285.82737076303977
261.21484320505175
240.87497430203697
224.4951748062722
211.6573062462139
201.877303813692
194.63738414930125
189.4324480891224
185.80205658096338
183.35017003575388
181.754490612466
180.76743620030538
180.21157434023502
179.97256725621693
179.99217738558565
180.26334911786265
180.82853532964506
181.78167591670214
183.27350163210818
185.51915920563147
188.80648022578418
193.50269672718753
200.0569177381396
208.9955482042749
220.90814504150075
236.42190177299372
256.1645868287681
280.7174968503864
310.56244013934713
346.0289608115098
387.24925363034373
297.00161400179076
274.2617729103631
255.6769542891852
240.87494956520882
229.42848696325927
220.82263945534902
214.53584145498633
210.0769920849106
207.01055679338336
204.9708845375682
203.66734138555583
202.88226601758572
202.46475344867326
202.32306368049146
202.41804738797296
202.75927688141672
203.40477111198848
204.4644633654562
206.10684844776677
208.5675749177469
212.15809550474154
217.27189361111567
224.38543926250284
234.05078983317574
246.87750841054924
263.5021816257259
284.54595047325967
310.5624364020699
341.9809202820998
379.0544710049288
421.82650911930136
311.4770991859066
290.9327329313674
274.26175030566253
261.2148290727873
251.2674863241384
243.89146815101597
238.5779896232417
234.86340793206585
232.3473509139976
230.70202247552172
229.67345893700906
229.07707981930005
228.79044476643153
228.74577685086427
228.9243689784561
229.35418212710013
230.11121006173894
231.32447314293896
233.18382448337198
235.94906063543937
239.95822391911506
245.63237678174937
253.4738183198526
264.054824664115
277.99454592159816
295.9231996677076
318.4344256532499
346.0289604579507
379.0544623206163
417.64583216413354
461.7506411309178
329.9618379613912
311.47707022862545
297.00159817268724
285.8273713476503
277.4253732473905
271.28338368564187
266.92347204968297
263.92199358588005
261.92256117267414
260.6409799365121
259.863341599774
259.4399869231053
259.2779826093488
259.33445157106826
259.61245589188337
260.16035789069514
261.07489888861903
262.5075381032447
264.67295589976044
267.85796631110475
272.4284640515579
278.83160802962055
287.59012171821877
299.28620756277775
314.53310593528886
333.93429443313687
358.03210742049066
387.2492405730593
421.82648458181205
461.75062430105896
506.30385948346265
