# vtk DataFile Version 2.0
Unstructured Grid Example
ASCII
DATASET UNSTRUCTURED_GRID

POINTS 961 float
0.150000006 -0.00839745998 0
0.146666661 -0.00839745998 0
0.143333331 -0.00839745998 0
0.140000001 -0.00839745998 0
0.13666667 -0.00839745998 0
0.13333334 -0.00839745998 0
0.129999995 -0.00839745998 0
0.126666665 -0.00839745998 0
0.123333335 -0.00839745998 0
0.119999997 -0.00839745998 0
0.116666667 -0.00839745998 0
0.113333337 -0.00839745998 0
0.109999999 -0.00839745998 0
0.106666669 -0.00839745998 0
0.103333332 -0.00839745998 0
0.100000001 -0.00839745998 0
0.0966666639 -0.00839745998 0
0.0933333337 -0.00839745998 0
0.0900000036 -0.00839745998 0
0.086666666 -0.00839745998 0
0.0833333358 -0.00839745998 0
0.0799999982 -0.00839745998 0
0.0766666681 -0.00839745998 0
0.0733333305 -0.00839745998 0
0.0700000003 -0.00839745998 0
0.0666666701 -0.00839745998 0
0.0633333325 -0.00839745998 0
0.0599999987 -0.00839745998 0
0.0566666685 -0.00839745998 0
0.0533333346 -0.00839745998 0
0.0500000007 -0.00839745998 0
0.148333326 -0.0112842107 0
0.144999996 -0.0112842107 0
0.141666666 -0.0112842107 0
0.138333336 -0.0112842107 0
0.135000005 -0.0112842107 0
0.13166666 -0.0112842107 0
0.12833333 -0.0112842107 0
0.125 -0.0112842107 0
0.12166667 -0.0112842107 0
0.118333332 -0.0112842107 0
0.115000002 -0.0112842107 0
0.111666664 -0.0112842107 0
0.108333334 -0.0112842107 0
0.104999997 -0.0112842107 0
0.101666667 -0.0112842107 0
0.0983333364 -0.0112842107 0
0.0949999988 -0.0112842107 0
0.0916666687 -0.0112842107 0
0.088333331 -0.0112842107 0
0.0850000009 -0.0112842107 0
0.0816666633 -0.0112842107 0
0.0783333331 -0.0112842107 0
0.075000003 -0.0112842107 0
0.0716666654 -0.0112842107 0
0.0683333352 -0.0112842107 0
0.0649999976 -0.0112842107 0
0.0616666675 -0.0112842107 0
0.0583333336 -0.0112842107 0
0.0549999997 -0.0112842107 0
0.0516666658 -0.0112842107 0
0.0483333319 -0.0112842107 0
0.146666661 -0.0141709624 0
0.143333331 -0.0141709624 0
0.140000001 -0.0141709624 0
0.13666667 -0.0141709624 0
0.13333334 -0.0141709624 0
0.129999995 -0.0141709624 0
0.126666665 -0.0141709624 0
0.123333335 -0.0141709624 0
0.119999997 -0.0141709624 0
0.116666667 -0.0141709624 0
0.113333337 -0.0141709624 0
0.109999999 -0.0141709624 0
0.106666669 -0.0141709624 0
0.103333332 -0.0141709624 0
0.100000001 -0.0141709624 0
0.0966666639 -0.0141709624 0
0.0933333337 -0.0141709624 0
0.0900000036 -0.0141709624 0
0.086666666 -0.0141709624 0
0.0833333358 -0.0141709624 0
0.0799999982 -0.0141709624 0
0.0766666681 -0.0141709624 0
0.0733333305 -0.0141709624 0
0.0700000003 -0.0141709624 0
0.0666666701 -0.0141709624 0
0.0633333325 -0.0141709624 0
0.0599999987 -0.0141709624 0
0.0566666685 -0.0141709624 0
0.0533333346 -0.0141709624 0
0.0500000007 -0.0141709624 0
0.0466666669 -0.0141709624 0
0.144999996 -0.0170577131 0
0.141666666 -0.0170577131 0
0.138333336 -0.0170577131 0
0.135000005 -0.0170577131 0
0.13166666 -0.0170577131 0
0.12833333 -0.0170577131 0
0.125 -0.0170577131 0
0.12166667 -0.0170577131 0
0.118333332 -0.0170577131 0
0.115000002 -0.0170577131 0
0.111666664 -0.0170577131 0
0.108333334 -0.0170577131 0
0.104999997 -0.0170577131 0
0.101666667 -0.0170577131 0
0.0983333364 -0.0170577131 0
0.0949999988 -0.0170577131 0
0.0916666687 -0.0170577131 0
0.088333331 -0.0170577131 0
0.0850000009 -0.0170577131 0
0.0816666633 -0.0170577131 0
0.0783333331 -0.0170577131 0
0.075000003 -0.0170577131 0
0.0716666654 -0.0170577131 0
0.0683333352 -0.0170577131 0
0.0649999976 -0.0170577131 0
0.0616666675 -0.0170577131 0
0.0583333336 -0.0170577131 0
0.0549999997 -0.0170577131 0
0.0516666658 -0.0170577131 0
0.0483333319 -0.0170577131 0
0.0450000018 -0.0170577131 0
0.143333331 -0.0199444648 0
0.140000001 -0.0199444648 0
0.13666667 -0.0199444648 0
0.13333334 -0.0199444648 0
0.129999995 -0.0199444648 0
0.126666665 -0.0199444648 0
0.123333335 -0.0199444648 0
0.119999997 -0.0199444648 0
0.116666667 -0.0199444648 0
0.113333337 -0.0199444648 0
0.109999999 -0.0199444648 0
0.106666669 -0.0199444648 0
0.103333332 -0.0199444648 0
0.100000001 -0.0199444648 0
0.0966666639 -0.0199444648 0
0.0933333337 -0.0199444648 0
0.0900000036 -0.0199444648 0
0.086666666 -0.0199444648 0
0.0833333358 -0.0199444648 0
0.0799999982 -0.0199444648 0
0.0766666681 -0.0199444648 0
0.0733333305 -0.0199444648 0
0.0700000003 -0.0199444648 0
0.0666666701 -0.0199444648 0
0.0633333325 -0.0199444648 0
0.0599999987 -0.0199444648 0
0.0566666685 -0.0199444648 0
0.0533333346 -0.0199444648 0
0.0500000007 -0.0199444648 0
0.0466666669 -0.0199444648 0
0.043333333 -0.0199444648 0
0.141666666 -0.0228312165 0
0.138333336 -0.0228312165 0
0.135000005 -0.0228312165 0
0.13166666 -0.0228312165 0
0.12833333 -0.0228312165 0
0.125 -0.0228312165 0
0.12166667 -0.0228312165 0
0.118333332 -0.0228312165 0
0.115000002 -0.0228312165 0
0.111666664 -0.0228312165 0
0.108333334 -0.0228312165 0
0.104999997 -0.0228312165 0
0.101666667 -0.0228312165 0
0.0983333364 -0.0228312165 0
0.0949999988 -0.0228312165 0
0.0916666687 -0.0228312165 0
0.088333331 -0.0228312165 0
0.0850000009 -0.0228312165 0
0.0816666633 -0.0228312165 0
0.0783333331 -0.0228312165 0
0.075000003 -0.0228312165 0
0.0716666654 -0.0228312165 0
0.0683333352 -0.0228312165 0
0.0649999976 -0.0228312165 0
0.0616666675 -0.0228312165 0
0.0583333336 -0.0228312165 0
0.0549999997 -0.0228312165 0
0.0516666658 -0.0228312165 0
0.0483333319 -0.0228312165 0
0.0450000018 -0.0228312165 0
0.0416666679 -0.0228312165 0
0.140000001 -0.0257179681 0
0.13666667 -0.0257179681 0
0.13333334 -0.0257179681 0
0.129999995 -0.0257179681 0
0.126666665 -0.0257179681 0
0.123333335 -0.0257179681 0
0.119999997 -0.0257179681 0
0.116666667 -0.0257179681 0
0.113333337 -0.0257179681 0
0.109999999 -0.0257179681 0
0.106666669 -0.0257179681 0
0.103333332 -0.0257179681 0
0.100000001 -0.0257179681 0
0.0966666639 -0.0257179681 0
0.0933333337 -0.0257179681 0
0.0900000036 -0.0257179681 0
0.086666666 -0.0257179681 0
0.0833333358 -0.0257179681 0
0.0799999982 -0.0257179681 0
0.0766666681 -0.0257179681 0
0.0733333305 -0.0257179681 0
0.0700000003 -0.0257179681 0
0.0666666701 -0.0257179681 0
0.0633333325 -0.0257179681 0
0.0599999987 -0.0257179681 0
0.0566666685 -0.0257179681 0
0.0533333346 -0.0257179681 0
0.0500000007 -0.0257179681 0
0.0466666669 -0.0257179681 0
0.043333333 -0.0257179681 0
0.0399999991 -0.0257179681 0
0.138333336 -0.0286047198 0
0.135000005 -0.0286047198 0
0.13166666 -0.0286047198 0
0.12833333 -0.0286047198 0
0.125 -0.0286047198 0
0.12166667 -0.0286047198 0
0.118333332 -0.0286047198 0
0.115000002 -0.0286047198 0
0.111666664 -0.0286047198 0
0.108333334 -0.0286047198 0
0.104999997 -0.0286047198 0
0.101666667 -0.0286047198 0
0.0983333364 -0.0286047198 0
0.0949999988 -0.0286047198 0
0.0916666687 -0.0286047198 0
0.088333331 -0.0286047198 0
0.0850000009 -0.0286047198 0
0.0816666633 -0.0286047198 0
0.0783333331 -0.0286047198 0
0.075000003 -0.0286047198 0
0.0716666654 -0.0286047198 0
0.0683333352 -0.0286047198 0
0.0649999976 -0.0286047198 0
0.0616666675 -0.0286047198 0
0.0583333336 -0.0286047198 0
0.0549999997 -0.0286047198 0
0.0516666658 -0.0286047198 0
0.0483333319 -0.0286047198 0
0.0450000018 -0.0286047198 0
0.0416666679 -0.0286047198 0
0.038333334 -0.0286047198 0
0.13666667 -0.0314914696 0
0.13333334 -0.0314914696 0
0.129999995 -0.0314914696 0
0.126666665 -0.0314914696 0
0.123333335 -0.0314914696 0
0.119999997 -0.0314914696 0
0.116666667 -0.0314914696 0
0.113333337 -0.0314914696 0
0.109999999 -0.0314914696 0
0.106666669 -0.0314914696 0
0.103333332 -0.0314914696 0
0.100000001 -0.0314914696 0
0.0966666639 -0.0314914696 0
0.0933333337 -0.0314914696 0
0.0900000036 -0.0314914696 0
0.086666666 -0.0314914696 0
0.0833333358 -0.0314914696 0
0.0799999982 -0.0314914696 0
0.0766666681 -0.0314914696 0
0.0733333305 -0.0314914696 0
0.0700000003 -0.0314914696 0
0.0666666701 -0.0314914696 0
0.0633333325 -0.0314914696 0
0.0599999987 -0.0314914696 0
0.0566666685 -0.0314914696 0
0.0533333346 -0.0314914696 0
0.0500000007 -0.0314914696 0
0.0466666669 -0.0314914696 0
0.043333333 -0.0314914696 0
0.0399999991 -0.0314914696 0
0.0366666652 -0.0314914696 0
0.135000005 -0.0343782231 0
0.13166666 -0.0343782231 0
0.12833333 -0.0343782231 0
0.125 -0.0343782231 0
0.12166667 -0.0343782231 0
0.118333332 -0.0343782231 0
0.115000002 -0.0343782231 0
0.111666664 -0.0343782231 0
0.108333334 -0.0343782231 0
0.104999997 -0.0343782231 0
0.101666667 -0.0343782231 0
0.0983333364 -0.0343782231 0
0.0949999988 -0.0343782231 0
0.0916666687 -0.0343782231 0
0.088333331 -0.0343782231 0
0.0850000009 -0.0343782231 0
0.0816666633 -0.0343782231 0
0.0783333331 -0.0343782231 0
0.075000003 -0.0343782231 0
0.0716666654 -0.0343782231 0
0.0683333352 -0.0343782231 0
0.0649999976 -0.0343782231 0
0.0616666675 -0.0343782231 0
0.0583333336 -0.0343782231 0
0.0549999997 -0.0343782231 0
0.0516666658 -0.0343782231 0
0.0483333319 -0.0343782231 0
0.0450000018 -0.0343782231 0
0.0416666679 -0.0343782231 0
0.038333334 -0.0343782231 0
0.0350000001 -0.0343782231 0
0.13333334 -0.0372649729 0
0.129999995 -0.0372649729 0
0.126666665 -0.0372649729 0
0.123333335 -0.0372649729 0
0.119999997 -0.0372649729 0
0.116666667 -0.0372649729 0
0.113333337 -0.0372649729 0
0.109999999 -0.0372649729 0
0.106666669 -0.0372649729 0
0.103333332 -0.0372649729 0
0.100000001 -0.0372649729 0
0.0966666639 -0.0372649729 0
0.0933333337 -0.0372649729 0
0.0900000036 -0.0372649729 0
0.086666666 -0.0372649729 0
0.0833333358 -0.0372649729 0
0.0799999982 -0.0372649729 0
0.0766666681 -0.0372649729 0
0.0733333305 -0.0372649729 0
0.0700000003 -0.0372649729 0
0.0666666701 -0.0372649729 0
0.0633333325 -0.0372649729 0
0.0599999987 -0.0372649729 0
0.0566666685 -0.0372649729 0
0.0533333346 -0.0372649729 0
0.0500000007 -0.0372649729 0
0.0466666669 -0.0372649729 0
0.043333333 -0.0372649729 0
0.0399999991 -0.0372649729 0
0.0366666652 -0.0372649729 0
0.0333333351 -0.0372649729 0
0.13166666 -0.0401517227 0
0.12833333 -0.0401517227 0
0.125 -0.0401517227 0
0.12166667 -0.0401517227 0
0.118333332 -0.0401517227 0
0.115000002 -0.0401517227 0
0.111666664 -0.0401517227 0
[...]
POINT_DATA 961
SCALARS Temp float 1
LOOKUP_TABLE default
415.083316347464
366.72354968050166
326.0743621636148
293.87367917890856
269.4846913095295
251.80734537134313
239.53911112863108
231.3807234800071
226.17682865581756
222.98897027584394
221.11075785329007
220.04475259117882
219.46094865037642
219.15194607856026
218.99371038782658
218.91548807246286
218.8789568984403
218.86513530093418
218.86740295793456
218.88953268436933
218.94870877603302
219.08457785006172
219.37625518251832
219.96915450806483
221.1116037689827
223.1970088152441
226.80086120756633
232.69612224522683
241.83070556239284
255.26584422978272
274.3321994292496
366.72356443751806
319.96679925990736
282.183752384963
252.86596553448203
231.0849736081568
215.58819503639046
205.02425606520347
198.11899533019493
193.78619484995158
191.1730652312737
189.65602153970943
188.8068827445716
188.34789025425195
188.1079489022688
187.98662677080654
187.92772517435696
187.90166972080812
187.89506453895123
187.90591606657267
187.94390160955922
188.03615355098665
188.24010019221578
188.6654217007889
189.5063333718956
191.082426316133
193.88076744192642
198.58512308415646
206.07392106920153
217.37115608564608
233.5545813313681
255.26586385420754
326.07431652465084
282.1837314679209
247.22236707450415
220.4838079826289
200.86790313912468
187.06643562139675
177.75017210603593
171.71236044141105
167.95159848965238
165.69755353409897
164.39574510211403
163.670178749904
163.27934755111946
163.07566721193072
162.97311854315015
162.9240185699001
162.90393427665975
162.90319937118738
162.9239106301582
162.98222642074745
163.1168591113157
163.40555674413417
163.9913913950856
165.11898032951376
167.17672780165134
170.73482427610554
176.56224743332393
185.60288057954713
198.89290426869894
217.37114670940764
241.83071569640435
293.87362295823704
252.8659357297757
220.48380889317278
195.9019127224295
177.97407893541063
165.41509350579977
156.96245511084336
151.4938361615292
148.0899751974798
146.0495111424067
144.8700482217182
144.2117736423261
143.85659251574873
143.67122015379294
143.57798632662664
143.53404692265602
143.5181022514566
143.5233640833899
143.55603104826034
143.63944282705899
143.82509824849353
144.2123154254145
144.97776404158526
146.41365369655156
148.96851776577574
153.27798002452144
160.1674236887553
170.60686546616728
185.60289608083326
206.0739341406994
232.6961137720234
269.4846404964057
231.08494679383455
200.8678887049905
177.9741443488127
161.28646113679088
149.58856765840835
141.70285108212113
136.589239372174
133.39748020154656
131.47824567405664
130.36526981764936
129.74209053221867
129.40481977093432
129.2284018500028
129.1398089893494
129.0989570601132
129.08666245781237
129.0987055177716
129.14556220695403
129.25822133182362
129.50136943815565
129.99547793570605
130.94824638738493
132.69281705752437
135.72495230615823
140.72533551212254
148.5491712535065
160.16741695452205
176.56224281629588
198.58512134619158
226.80086710224413
251.8072949928687
215.5882301080906
187.0664819229597
165.4150627705298
149.58855572589823
138.45670766895492
130.92489600083914
126.02231803188326
122.95091089490207
121.09749398099403
120.01914351984513
119.4135411099328
119.08495494368195
118.91284988858584
118.82673040887909
118.78817218117383
118.77963379724125
118.79937539241193
118.8622444366981
119.00688853605553
119.3106097253733
119.91299400763714
121.04798095406979
123.08064448680491
126.53982261792834
132.13272418668993
140.72533255796438
153.27798133856487
170.7348312309659
193.88074633238955
223.1970027303618
239.53911994818543
205.02427870897264
177.75021763390458
156.96241906294858
141.70283697615452
130.92489241785583
123.60371459880764
118.82101354797808
115.81498218000034
113.99583581602417
112.93480667054546
112.33768950466786
112.01320644181874
111.84322385306393
111.75864801219443
111.72216676101668
111.71766479226243
111.74580943603571
111.82569276148439
112.0031091028045
112.36651464290931
113.0713733222152
114.37188139227574
116.65557877581367
120.47168262107597
126.53981900029068
135.7249446711876
148.9685066514678
167.17672619132753
191.0824242164007
221.11161249721198
231.38073882704094
198.11902205330117
171.7123049120998
151.49380444581465
136.58923860674676
126.02232844626442
118.8210110542418
114.10352799650697
111.13157309486974
109.32958865747645
108.27690926157233
107.6837654067679
107.36121115103289
107.19237428355295
107.1089845662586
107.07457236925755
107.07431730994587
107.11114250414872
107.20800052661242
107.41687226926406
107.83531360866793
108.63088819404841
110.07200336759382
112.56029571061089
116.65557681482018
123.08064169371208
132.6928187866643
146.41365492249722
165.11896589862954
189.5063141537263
219.96914450608324
226.17683634959613
193.78622841031546
167.95155379789202
148.08995743001648
133.39748239007415
122.95090154434313
115.81497995947953
111.13158001435997
108.17672388045746
106.38302353753312
105.33424310456637
104.7429252117064
104.42131379849617
104.25321189735453
104.17088386640158
104.13855467977582
104.14256383776176
104.1878324605158
104.30058467106778
104.53775696251407
105.00373940195236
105.87452329600947
107.42749799552901
110.07200521548094
114.37188193504574
121.04798029626568
130.9482450257802
144.9777598453943
163.9913950647225
188.66542860445784
219.3762740276227
222.98900713902069
191.1730011682774
165.697530606558
146.04950767023516
131.47825809630842
121.09749297168098
113.99584117249773
109.32958707699808
106.3830222715466
104.59319421802083
103.54619742394338
102.95572961369194
102.63463810969694
102.46710767291307
102.3857883805451
102.3554908326803
102.3635498060783
102.41654251445492
102.54326724292739
102.80432783832914
103.30882821400442
104.23808906557004
105.87452197131226
108.63088786494275
113.0713730563955
119.9129934138644
129.99547762426465
144.21229828624092
163.40554206714467
188.24008338821176
219.08456933460752
221.11081710118359
189.6559713335186
164.3957324347399
144.87005382749032
130.3652596374808
120.01914479843052
112.93481392472587
108.27690954768187
105.33424479568936
103.54619728414181
102.5000237567752
101.90999058592864
101.5892550456881
101.42223423353026
101.3418750956923
101.31347005330412
101.32515996359871
101.38480187711082
101.52307087324068
101.80307133029326
102.33687744822132
103.30882965087865
105.00373982414816
107.83531239688449
112.36651270124737
119.31060845930136
129.50136653346323
143.82509645034548
163.11686431353894
188.03616206637884
218.94869550107916
220.04469225145294
188.8068498385882
163.67017651568062
144.21178597552515
129.7420818520166
119.41354511115497
112.33768522522529
107.68376625897419
104.74292218885653
102.95572958917253
101.90999166260869
101.32025274092668
100.99983335487472
100.83330547119975
100.7538455270652
100.7271237261583
100.741892584481
100.80692898097655
100.95417398337281
101.24829888988427
101.80307241124613
102.80432862925706
104.5377563779519
107.41687485129924
112.00311283632527
119.00689505995769
129.25821654684017
143.63943698267545
162.98222766044046
187.94390346543386
218.88954666095887
219.4609200457374
188.34788429872987
163.27936480795526
143.85657925972328
129.40482182821415
119.08496700789743
112.01320553513824
107.36121496452837
104.42131236709237
102.63463911388163
101.58925443495443
100.9998329972196
100.6797772293196
100.51376604692372
100.43514671159934
100.40987025796676
100.42712337201203
100.49629840159238
100.65012541029306
100.95417313367192
101.5230705985005
102.54326836122262
104.30058244809445
107.20799968214537
111.82569130623352
118.8622422041574
129.1455605375009
143.55602948353024
162.92391730083727
187.9058933618325
218.86740675793286
219.15192304119498
188.1079473911106
163.07569013202513
143.671208251485
129.22840571852362
118.91284245217952
111.84322437033674
107.19237133022675
104.25321097496946
102.46710919879011
101.4222334895745
100.83330545229944
100.51376595960922
100.34836314496634
100.27056397425973
100.24651861766476
100.26570510542467
100.33790252030778
100.49629827327313
100.80692920897891
101.38480177934365
102.41654321199243
104.187832257123
107.11114475779303
111.7458133621229
118.79937216971673
129.09870136587426
143.5233591844635
162.90320067317825
187.89506830508796
218.86513452340913
218.99370915255295
187.986645714567
162.97310481091642
143.57798700732025
129.13982433865522
118.826728759016
111.75865405976926
107.10898391855831
104.17088382342142
102.38578805555265
101.34187508676243
100.75384578262602
100.43514662130298
100.2705640738521
100.19365063126885
100.17069722533856
100.19137663434901
100.26570502449263
100.42712315832922
100.74189229106685
101.32515999703706
102.36354931761656
104.14256173931322
107.07431652277322
111.71766325157752
118.77963280675579
129.08666164704405
143.5181019029765
162.90391834058363
187.90166588095562
218.8789485676161
218.91548858881131
187.92774731628748
162.9240061106285
143.5340501971553
129.09894558333573
118.78817202558177
111.72216148548473
107.07457268341948
104.1385557566607
102.35549050851249
101.3134701907545
100.72712310065708
100.40987029006625
100.24651847180152
100.17069722815454
100.14881599719163
100.17069726750887
100.24651853013921
100.40987050836122
100.727123379415
101.31346986785792
102.35549160654989
104.13855465701809
107.07457495724077
111.72216449937976
118.78816936545307
129.09895439261794
143.53404254929373
162.92402303854627
187.92771542378253
218.91549012964538
218.87897870555472
187.901646501205
162.9039410180765
143.51812115017145
129.0866591238512
118.77964186223852
111.71766355335589
107.07431954143881
104.14256173932667
102.36355061132511
101.32516090354514
100.74189228685526
100.427123686349
100.26570507169924
100.19137667411928
100.17069729739204
100.19365069454419
100.27056389528413
100.43514671108612
100.75384534939298
101.3418744007064
102.38578806340134
104.1708819118892
107.1089835719389
111.7586476358848
118.82673007683974
129.1398094060076
143.5779683208599
162.97311566398284
187.98661021496827
218.99370231213655
218.8651669383346
187.8950470054776
162.90321018113585
143.52334619029244
129.0987045470938
118.79936714831757
111.74580956150048
107.11114634135707
104.18783035831368
102.41654373450432
101.38480126954246
100.80692881066493
100.49629815508627
100.33790243568795
100.26570517453779
100.24651863698563
100.27056399793598
100.34836325642542
100.51376609880975
100.83330525079418
101.42223408175516
102.4671084469701
104.253212235545
107.19237297200347
111.84322215120123
118.91284776020005
129.2283986942859
143.67121838336396
163.075658889006
188.10794026366833
219.15194728715778
218.86737005173615
187.905905829233
162.92392774648366
143.55601452781644
129.14556488507282
118.86223677139866
111.82569210503436
107.20799717107383
104.3005830718716
102.5432689847092
101.52307002570112
100.95417375449914
100.650125275063
100.49629831193188
100.42712335880437
100.40987025042932
100.43514664176423
100.5137661428001
100.67977709291941
100.99983284044878
101.58925484583828
102.63463870855367
104.42131339676791
107.36121280914323
112.01320955603761
119.08496101040393
129.4048144658923
143.8565953648942
163.27934707403395
188.34789043494845
219.4609591439122
218.88952532963495
187.94391437367887
162.98220891904745
143.63944039269708
129.25820874831638
119.00688917705762
112.00311513389205
107.41687181839538
104.53775724653835
102.80432778053935
101.80307173892429
101.2482986756397
100.95417381536795
100.80692914349223
100.74189261031836
100.72712373041742
100.75384557743273
100.83330552995433
100.99983323004813
101.32025304332507
101.90999117207244
102.95573025842991
104.74292301026283
107.6837645630155
112.33768829662212
119.41353950656259
129.74208851869636
144.2117613310098
163.67017139512117
188.80687426715184
220.04475320310576
218.94870483977826
188.03617167233682
163.11684297330035
143.82510145510656
129.5013585036387
119.31060960271093
112.36650882669312
107.83531343910809
105.00374088719981
103.3088287141435
102.33687855184606
101.80307113861457
101.52307072580803
101.38480183324262
101.32515990174849
101.31347005180781
101.34187517566667
101.42223414430954
101.58925497438948
101.90999079380566
102.50002347300799
103.5461978245669
105.33424332658667
108.27691200302161
112.93480967921151
120.01913974799609
130.3652719677419
144.87004284225114
164.39574429021434
189.65602154541972
221.1107545420793
219.0845753846808
188.24005623441226
163.4055456660091
144.21228736954393
129.99546937043422
119.91299684150546
113.07136861850174
108.63088932407507
105.87452069267319
104.23808802754863
103.30882786422205
102.80432753154658
102.54326755430068
102.41654260194143
102.36354981130515
102.35549085205757
102.38578839135302
102.46710760115094
102.63463826576344
102.95572932850685
103.54619782499499
104.59319464727342
106.38302122787289
109.32958912373996
113.99583771025137
121.09749869550431
131.47824228430048
146.04950922341706
165.6975616219427
191.1730764588451
222.98898677287914
219.37630212269568
188.66542009712435
163.99141673875448
144.977761186321
130.94825624278758
121.0479820486194
114.37188935365182
110.07201158812748
107.42750048621346
105.87452861336813
105.00374241200528
104.53775983532444
104.30058759487383
104.18783527142473
104.14256684826005
104.13855773582333
104.17088670096162
104.25321479135164
104.42131672632102
104.74292771094521
105.33424588625955
106.38302478828328
108.1767270432916
111.1315781355503
115.81497678353769
122.95090939470019
133.3974728543734
148.0899649636585
167.95159262891883
193.78616562793337
226.17681054613524
219.96913779246353
189.50633985017095
165.11896836058634
146.41365732241823
132.69283429224623
123.08064426195709
116.65558630472798
112.56030014522038
110.07200747669792
108.63089287124242
107.83531807370419
107.41687767999083
107.20800558713778
107.11114733007946
107.07432208864567
107.07457709522863
107.10898927196801
107.19237907312109
107.36121564899679
107.68377024372553
108.27691378714695
109.32959209269507
111.13157798372053
114.10352869118044
118.82101712503119
126.0223182829887
136.58923972561723
151.49382636002431
171.71235770798992
198.11898853446516
231.38072259431655
221.1115974289544
191.08244361721435
167.17672197691877
148.9685170839469
135.72494372686123
126.53982700849143
120.47168999879891
116.6555810159128
114.37188817179536
113.07137697278074
112.36651810981552
112.00311264512273
111.82569609165532
111.74581321840955
111.71766866966468
111.72217031343486
111.75865178993611
111.84322758885622
112.01320992830291
112.3376932764391
112.93480972676667
113.99584023709312
115.814983775549
118.82101516778002
123.60372432311291
130.92489086669013
141.70284882693122
156.9624549838608
177.7501681314657
205.02425428275728
239.5391218840757
223.19701081209575
193.88073093961128
170.73481921810506
153.27798879493136
140.72532556643407
132.13272792493154
126.53982060153528
123.08064272375364
121.0479803090933
119.91299324351075
119.31061060063313
119.00688909433298
118.86224460246878
118.79937545624335
118.7796337708549
118.7881722594108
118.82673054611006
118.91284994315954
119.08495540323456
119.41354130143726
120.01914346709623
121.0974952304005
122.95091003372944
126.0223215047437
130.92488925751462
138.4567099720438
149.5885742772855
165.4151047666449
187.06645012170034
215.5882053513646
251.8072963876368
226.80086467353942
198.58509537054613
176.5622373513702
160.1673991769825
148.54916628326094
140.72533078730632
135.7249414333827
132.69281273537
130.94823827774263
129.99546964108282
129.5013612467004
129.25821277989488
129.14555443332046
129.09869792678904
129.08665438063542
129.09894940368503
129.1398012037236
129.22839388003092
129.40481209707485
129.7420826426787
130.36526289795304
131.47823720047757
133.39747259804378
136.58923749593552
141.7028415182832
149.58856808471148
161.28647904390436
177.97409008202294
200.86784920792851
231.08492116801688
269.4846374063927
232.6961263579077
206.0739487791445
185.60293195238376
170.60688253875722
160.1674522206454
153.2780004850866
148.9685379210021
146.41367473359685
144.97778463737242
144.21233816860993
143.82512063262635
143.63946458170517
143.55605258950823
143.52338545953776
143.51812386613454
143.53406853071218
143.57800791444308
143.67124212440464
143.8566139459614
144.2117949901835
144.87007018200845
146.04953122013924
148.08999727720598
151.4938497181153
156.96247305501086
165.41512027096175
177.97411858436058
195.90188263341412
220.48377256340726
252.8659063684076
293.87362682582153
241.8307265774361
217.3711798590505
198.89292045574052
185.60290924589668
176.56227492186252
170.7348435211108
167.1767542428623
165.1190021080357
163.99141276856295
163.40557809003124
163.11687980707148
162.98224811526012
162.92393258480396
162.90322072035204
162.90395620383399
162.92404025072324
162.9731399866688
163.0756888170309
163.27936902524868
163.67020058647972
164.39576543060352
165.69757430294706
167.95162205337323
171.71237622904397
177.75019272107264
187.06646521306965
200.867865893729
220.48377307471046
247.2223294343502
282.18369806120273
326.07431325036464
255.26586668644782
233.55460485354757
217.37115881791203
206.0739363410061
198.58512983063423
193.88077409409314
191.08243406033026
189.5063407749599
188.6654318900669
188.24010994846358
188.03616241747088
187.943910259047
187.90592453208396
187.8950734537316
187.9016785466495
187.92773403461612
187.98663604005597
188.10795750372253
188.34789907717763
188.80689204529526
189.65602947650711
191.1730745709004
193.78619773760792
198.1190014905879
205.0242682653699
215.5882162442329
231.08493133044178
252.86591126934954
282.1836910059668
319.966740722151
366.7234687157805
274.33221582790037
255.26583859783952
241.8307124530113
232.6961281462523
226.8008580908086
223.19701352338961
221.11160336885501
219.96915481137782
219.37625539511257
219.08457636947765
218.94870875816252
218.8895327926695
218.8674029108869
218.86513565888765
218.87895697197357
218.9154881347965
218.99370998173137
219.15194626787715
219.46094884480968
220.04475155048215
221.11075735816732
222.9889722529478
226.17682464569563
231.38072262383074
239.53911562315668
251.8072907693698
269.4846383812274
293.8736167405762
326.0742892785039
366.7234508854157
415.08290575875606
