# vtk DataFile Version 2.0
Unstructured Grid Example
ASCII
DATASET UNSTRUCTURED_GRID

POINTS 961 float
0.150000006 -0.00839745998 0
0.146666661 -0.00839745998 0
0.143333331 -0.00839745998 0
0.140000001 -0.00839745998 0
0.13666667 -0.00839745998 0
0.13333334 -0.00839745998 0
0.129999995 -0.00839745998 0
0.126666665 -0.00839745998 0
0.123333335 -0.00839745998 0
0.119999997 -0.00839745998 0
0.116666667 -0.00839745998 0
0.113333337 -0.00839745998 0
0.109999999 -0.00839745998 0
0.106666669 -0.00839745998 0
0.103333332 -0.00839745998 0
0.100000001 -0.00839745998 0
0.0966666639 -0.00839745998 0
0.0933333337 -0.00839745998 0
0.0900000036 -0.00839745998 0
0.086666666 -0.00839745998 0
0.0833333358 -0.00839745998 0
0.0799999982 -0.00839745998 0
0.0766666681 -0.00839745998 0
0.0733333305 -0.00839745998 0
0.0700000003 -0.00839745998 0
0.0666666701 -0.00839745998 0
0.0633333325 -0.00839745998 0
0.0599999987 -0.00839745998 0
0.0566666685 -0.00839745998 0
0.0533333346 -0.00839745998 0
0.0500000007 -0.00839745998 0
0.148333326 -0.0112842107 0
0.144999996 -0.0112842107 0
0.141666666 -0.0112842107 0
0.138333336 -0.0112842107 0
0.135000005 -0.0112842107 0
0.13166666 -0.0112842107 0
0.12833333 -0.0112842107 0
0.125 -0.0112842107 0
0.12166667 -0.0112842107 0
0.118333332 -0.0112842107 0
0.115000002 -0.0112842107 0
0.111666664 -0.0112842107 0
0.108333334 -0.0112842107 0
0.104999997 -0.0112842107 0
0.101666667 -0.0112842107 0
0.0983333364 -0.0112842107 0
0.0949999988 -0.0112842107 0
0.0916666687 -0.0112842107 0
0.088333331 -0.0112842107 0
0.0850000009 -0.0112842107 0
0.0816666633 -0.0112842107 0
0.0783333331 -0.0112842107 0
0.075000003 -0.0112842107 0
0.0716666654 -0.0112842107 0
0.0683333352 -0.0112842107 0
0.0649999976 -0.0112842107 0
0.0616666675 -0.0112842107 0
0.0583333336 -0.0112842107 0
0.0549999997 -0.0112842107 0
0.0516666658 -0.0112842107 0
0.0483333319 -0.0112842107 0
0.146666661 -0.0141709624 0
0.143333331 -0.0141709624 0
0.140000001 -0.0141709624 0
0.13666667 -0.0141709624 0
0.13333334 -0.0141709624 0
0.129999995 -0.0141709624 0
0.126666665 -0.0141709624 0
0.123333335 -0.0141709624 0
0.119999997 -0.0141709624 0
0.116666667 -0.0141709624 0
0.113333337 -0.0141709624 0
0.109999999 -0.0141709624 0
0.106666669 -0.0141709624 0
0.103333332 -0.0141709624 0
0.100000001 -0.0141709624 0
0.0966666639 -0.0141709624 0
0.0933333337 -0.0141709624 0
0.0900000036 -0.0141709624 0
0.086666666 -0.0141709624 0
0.0833333358 -0.0141709624 0
0.0799999982 -0.0141709624 0
0.0766666681 -0.0141709624 0
0.0733333305 -0.0141709624 0
0.0700000003 -0.0141709624 0
0.0666666701 -0.0141709624 0
0.0633333325 -0.0141709624 0
0.0599999987 -0.0141709624 0
0.0566666685 -0.0141709624 0
0.0533333346 -0.0141709624 0
0.0500000007 -0.0141709624 0
0.0466666669 -0.0141709624 0
0.144999996 -0.0170577131 0
0.141666666 -0.0170577131 0
0.138333336 -0.0170577131 0
0.135000005 -0.0170577131 0
0.13166666 -0.0170577131 0
0.12833333 -0.0170577131 0
0.125 -0.0170577131 0
0.12166667 -0.0170577131 0
0.118333332 -0.0170577131 0
0.115000002 -0.0170577131 0
0.111666664 -0.0170577131 0
0.108333334 -0.0170577131 0
0.104999997 -0.0170577131 0
0.101666667 -0.0170577131 0
0.0983333364 -0.0170577131 0
0.0949999988 -0.0170577131 0
0.0916666687 -0.0170577131 0
0.088333331 -0.0170577131 0
0.0850000009 -0.0170577131 0
0.0816666633 -0.0170577131 0
0.0783333331 -0.0170577131 0
0.075000003 -0.0170577131 0
0.0716666654 -0.0170577131 0
0.0683333352 -0.0170577131 0
0.0649999976 -0.0170577131 0
0.0616666675 -0.0170577131 0
0.0583333336 -0.0170577131 0
0.0549999997 -0.0170577131 0
0.0516666658 -0.0170577131 0
0.0483333319 -0.0170577131 0
0.0450000018 -0.0170577131 0
0.143333331 -0.0199444648 0
0.140000001 -0.0199444648 0
0.13666667 -0.0199444648 0
0.13333334 -0.0199444648 0
0.129999995 -0.0199444648 0
0.126666665 -0.0199444648 0
0.123333335 -0.0199444648 0
0.119999997 -0.0199444648 0
0.116666667 -0.0199444648 0
0.113333337 -0.0199444648 0
0.109999999 -0.0199444648 0
0.106666669 -0.0199444648 0
0.103333332 -0.0199444648 0
0.100000001 -0.0199444648 0
0.0966666639 -0.0199444648 0
0.0933333337 -0.0199444648 0
0.0900000036 -0.0199444648 0
0.086666666 -0.0199444648 0
0.0833333358 -0.0199444648 0
0.0799999982 -0.0199444648 0
0.0766666681 -0.0199444648 0
0.0733333305 -0.0199444648 0
0.0700000003 -0.0199444648 0
0.0666666701 -0.0199444648 0
0.0633333325 -0.0199444648 0
0.0599999987 -0.0199444648 0
0.0566666685 -0.0199444648 0
0.0533333346 -0.0199444648 0
0.0500000007 -0.0199444648 0
0.0466666669 -0.0199444648 0
0.043333333 -0.0199444648 0
0.141666666 -0.0228312165 0
0.138333336 -0.0228312165 0
0.135000005 -0.0228312165 0
0.13166666 -0.0228312165 0
0.12833333 -0.0228312165 0
0.125 -0.0228312165 0
0.12166667 -0.0228312165 0
0.118333332 -0.0228312165 0
0.115000002 -0.0228312165 0
0.111666664 -0.0228312165 0
0.108333334 -0.0228312165 0
0.104999997 -0.0228312165 0
0.101666667 -0.0228312165 0
0.0983333364 -0.0228312165 0
0.0949999988 -0.0228312165 0
0.0916666687 -0.0228312165 0
0.088333331 -0.0228312165 0
0.0850000009 -0.0228312165 0
0.0816666633 -0.0228312165 0
0.0783333331 -0.0228312165 0
0.075000003 -0.0228312165 0
0.0716666654 -0.0228312165 0
0.0683333352 -0.0228312165 0
0.0649999976 -0.0228312165 0
0.0616666675 -0.0228312165 0
0.0583333336 -0.0228312165 0
0.0549999997 -0.0228312165 0
0.0516666658 -0.0228312165 0
0.0483333319 -0.0228312165 0
0.0450000018 -0.0228312165 0
0.0416666679 -0.0228312165 0
0.140000001 -0.0257179681 0
0.13666667 -0.0257179681 0
0.13333334 -0.0257179681 0
0.129999995 -0.0257179681 0
0.126666665 -0.0257179681 0
0.123333335 -0.0257179681 0
0.119999997 -0.0257179681 0
0.116666667 -0.0257179681 0
0.113333337 -0.0257179681 0
0.109999999 -0.0257179681 0
0.106666669 -0.0257179681 0
0.103333332 -0.0257179681 0
0.100000001 -0.0257179681 0
0.0966666639 -0.0257179681 0
0.0933333337 -0.0257179681 0
0.0900000036 -0.0257179681 0
0.086666666 -0.0257179681 0
0.0833333358 -0.0257179681 0
0.0799999982 -0.0257179681 0
0.0766666681 -0.0257179681 0
0.0733333305 -0.0257179681 0
0.0700000003 -0.0257179681 0
0.0666666701 -0.0257179681 0
0.0633333325 -0.0257179681 0
0.0599999987 -0.0257179681 0
0.0566666685 -0.0257179681 0
0.0533333346 -0.0257179681 0
0.0500000007 -0.0257179681 0
0.0466666669 -0.0257179681 0
0.043333333 -0.0257179681 0
0.0399999991 -0.0257179681 0
0.138333336 -0.0286047198 0
0.135000005 -0.0286047198 0
0.13166666 -0.0286047198 0
0.12833333 -0.0286047198 0
0.125 -0.0286047198 0
0.12166667 -0.0286047198 0
0.118333332 -0.0286047198 0
0.115000002 -0.0286047198 0
0.111666664 -0.0286047198 0
0.108333334 -0.0286047198 0
0.104999997 -0.0286047198 0
0.101666667 -0.0286047198 0
0.0983333364 -0.0286047198 0
0.0949999988 -0.0286047198 0
0.0916666687 -0.0286047198 0
0.088333331 -0.0286047198 0
0.0850000009 -0.0286047198 0
0.0816666633 -0.0286047198 0
0.0783333331 -0.0286047198 0
0.075000003 -0.0286047198 0
0.0716666654 -0.0286047198 0
0.0683333352 -0.0286047198 0
0.0649999976 -0.0286047198 0
0.0616666675 -0.0286047198 0
0.0583333336 -0.0286047198 0
0.0549999997 -0.0286047198 0
0.0516666658 -0.0286047198 0
0.0483333319 -0.0286047198 0
0.0450000018 -0.0286047198 0
0.0416666679 -0.0286047198 0
0.038333334 -0.0286047198 0
0.13666667 -0.0314914696 0
0.13333334 -0.0314914696 0
0.129999995 -0.0314914696 0
0.126666665 -0.0314914696 0
0.123333335 -0.0314914696 0
0.119999997 -0.0314914696 0
0.116666667 -0.0314914696 0
0.113333337 -0.0314914696 0
0.109999999 -0.0314914696 0
0.106666669 -0.0314914696 0
0.103333332 -0.0314914696 0
0.100000001 -0.0314914696 0
0.0966666639 -0.0314914696 0
0.0933333337 -0.0314914696 0
0.0900000036 -0.0314914696 0
0.086666666 -0.0314914696 0
0.0833333358 -0.0314914696 0
0.0799999982 -0.0314914696 0
0.0766666681 -0.0314914696 0
0.0733333305 -0.0314914696 0
0.0700000003 -0.0314914696 0
0.0666666701 -0.0314914696 0
0.0633333325 -0.0314914696 0
0.0599999987 -0.0314914696 0
0.0566666685 -0.0314914696 0
0.0533333346 -0.0314914696 0
0.0500000007 -0.0314914696 0
0.0466666669 -0.0314914696 0
0.043333333 -0.0314914696 0
0.0399999991 -0.0314914696 0
0.0366666652 -0.0314914696 0
0.135000005 -0.0343782231 0
0.13166666 -0.0343782231 0
0.12833333 -0.0343782231 0
0.125 -0.0343782231 0
0.12166667 -0.0343782231 0
0.118333332 -0.0343782231 0
0.115000002 -0.0343782231 0
0.111666664 -0.0343782231 0
0.108333334 -0.0343782231 0
0.104999997 -0.0343782231 0
0.101666667 -0.0343782231 0
0.0983333364 -0.0343782231 0
0.0949999988 -0.0343782231 0
0.0916666687 -0.0343782231 0
0.088333331 -0.0343782231 0
0.0850000009 -0.0343782231 0
0.0816666633 -0.0343782231 0
0.0783333331 -0.0343782231 0
0.075000003 -0.0343782231 0
0.0716666654 -0.0343782231 0
0.0683333352 -0.0343782231 0
0.0649999976 -0.0343782231 0
0.0616666675 -0.0343782231 0
0.0583333336 -0.0343782231 0
0.0549999997 -0.0343782231 0
0.0516666658 -0.0343782231 0
0.0483333319 -0.0343782231 0
0.0450000018 -0.0343782231 0
0.0416666679 -0.0343782231 0
0.038333334 -0.0343782231 0
0.0350000001 -0.0343782231 0
0.13333334 -0.0372649729 0
0.129999995 -0.0372649729 0
0.126666665 -0.0372649729 0
0.123333335 -0.0372649729 0
0.119999997 -0.0372649729 0
0.116666667 -0.0372649729 0
0.113333337 -0.0372649729 0
0.109999999 -0.0372649729 0
0.106666669 -0.0372649729 0
0.103333332 -0.0372649729 0
0.100000001 -0.0372649729 0
0.0966666639 -0.0372649729 0
0.0933333337 -0.0372649729 0
0.0900000036 -0.0372649729 0
0.086666666 -0.0372649729 0
0.0833333358 -0.0372649729 0
0.0799999982 -0.0372649729 0
0.0766666681 -0.0372649729 0
0.0733333305 -0.0372649729 0
0.0700000003 -0.0372649729 0
0.0666666701 -0.0372649729 0
0.0633333325 -0.0372649729 0
0.0599999987 -0.0372649729 0
0.0566666685 -0.0372649729 0
0.0533333346 -0.0372649729 0
0.0500000007 -0.0372649729 0
0.0466666669 -0.0372649729 0
0.043333333 -0.0372649729 0
0.0399999991 -0.0372649729 0
0.0366666652 -0.0372649729 0
0.0333333351 -0.0372649729 0
0.13166666 -0.0401517227 0
0.12833333 -0.0401517227 0
0.125 -0.0401517227 0
0.12166667 -0.0401517227 0
0.118333332 -0.0401517227 0
0.115000002 -0.0401517227 0
0.111666664 -0.0401517227 0
[...]
POINT_DATA 961
SCALARS Temp float 1
LOOKUP_TABLE default
511.0988299538121
466.78033499923816
426.96839384980103
392.3718372195355
363.0189855230644
338.69338953704937
319.00129284536354
303.4302306594858
291.40349999128165
282.329560052711
275.6416534773149
270.8260263017494
267.4389499398635
265.1137113028473
263.5599110862407
262.5579955805152
261.9515133660061
261.6394876432606
261.57058315192785
261.7401929304506
262.1909024080145
263.01611237402136
264.3658908713635
266.4534856095829
269.5602099922869
274.03633158863965
280.29557199752554
288.80203864334163
300.05123829868097
314.55398993730637
332.9974446167983
466.78034767504124
422.86672177022996
384.32505948958334
351.2201360392729
323.43792702124614
300.6584428682428
282.41158534248217
268.1329239209142
257.2174467211
249.0652331977104
243.11671607967193
238.87600701284944
235.92340227957638
233.91854761183532
232.59724869682182
231.76451040617704
231.28649930655345
231.08346537827325
231.12509910798815
231.42917696505182
232.06363004332852
233.15147282624642
234.87733466703688
237.4935900088187
241.32362719358414
246.7597591543633
254.2535345308701
264.2980461163891
277.4036145350979
294.0763623132316
314.55400964890015
426.96834654608597
384.32503553408174
347.24208270301995
315.6927106610744
289.44845782482724
268.1091752949879
251.1516064360867
237.9821658520892
227.98699363680916
220.5731106849658
215.19851092819866
211.39107400638534
208.75717626517152
206.98218804250092
205.82575861358828
205.11437996589117
204.7337481468885
204.62268828669406
204.769915597275
205.21418473349206
206.04769060494849
207.42183884659164
209.55380848995517
212.73158480487456
217.3149282705078
223.72959548900997
232.45286344161903
243.98943780974435
258.8360481854533
277.4036056240803
300.0512501543514
392.37177361722246
351.2200980292955
315.6927080720697
285.67690300321243
260.86899034822096
240.8163023432486
224.96592624815884
212.71531952734912
203.4572888343784
196.61629103674122
191.67385858005952
188.18373765037612
185.77763218884778
184.16421081313757
183.12370519244368
182.5007634646605
182.19764392938572
182.16936698465008
182.42185774636226
183.01338294514574
184.05888722707692
185.73610023567147
188.29150366601644
192.04369845830965
197.38151984997677
204.75418538175765
214.6518436546868
227.57486248489758
243.9894552248296
264.29805938911545
288.8020301747202
363.01891969406427
323.4378867954148
289.4484326611427
260.8690818822904
237.34649117304193
218.39969031767805
203.466972736375
191.9524664033178
183.26642143474655
176.85665866901047
172.23039776192485
168.96648769194024
166.71948268481296
165.2179664383289
164.2592610330051
163.70299127756454
163.4653291178292
163.51539517745547
163.87460322830506
164.619069202626
165.8844602780951
167.8719282697992
170.85298754331305
175.17085849994862
181.23547285990318
189.50979428669044
200.48605509565107
214.6518359317635
232.45285787200132
254.25353379379527
280.29557705340153
338.6933175596342
300.6584918076688
268.10923914960495
240.81626505553518
218.3996748374019
200.37008324292074
186.17289316981268
175.22969782397638
166.9741796881955
160.87972542286377
156.47852788739112
153.3719485479763
151.23399358179768
149.80953885429636
148.9096790070936
148.40619720901717
148.2269066568559
148.3531618582909
148.8201463399047
149.71989805944412
151.20628065664303
153.50032214749302
156.89371929127037
161.74798872474963
168.4865476691595
177.5780143185903
189.50978971229628
204.75418699985875
223.7296019762915
246.75973639454676
274.036328744553
319.0013084337452
282.4116162188588
251.15166353773802
224.96588094026407
203.46695168404761
186.17288617740058
172.54674277468206
162.03371905029647
154.0929905563637
148.22282115159294
143.9777782157609
140.9783089514932
138.91417306006042
137.54313900133832
136.68715900636982
136.22778888543553
136.1025467442483
136.30330715951845
136.87724872128413
137.9301693327682
139.63123905688752
142.21747974669742
145.99581484804202
151.34010922228492
158.68091440796113
168.48654231445474
181.23546212961054
197.38150469225985
217.31492927399904
241.3236261865242
269.56021795348033
303.4302483413424
268.1329545917272
237.98209741360256
212.7152751881643
191.95247019712772
175.22971624224152
162.03371359358633
151.83529735121286
144.11845610903174
138.40377669473997
134.26464742255314
131.33693181933202
129.32265578772126
127.98951099064452
127.16786968615688
126.74710122071536
126.67276143810221
126.94563057442974
127.6230502724961
128.82226351703616
130.72471201675765
133.57957053511348
137.70437638304364
143.48027561146688
151.34010548976855
161.74798290955871
175.17086237342224
192.04370047461828
212.73156903626045
237.49356998578202
266.4534743548265
291.4035086217537
257.21748226213003
227.9869510770613
203.45727183750355
183.26642664137583
166.97416285440633
154.0929843558775
144.11847307151996
136.55688292193665
130.94756115239213
126.8790322295405
123.99904271099015
122.01888983139278
120.71373462820635
119.92039651861144
119.53445294996213
119.50803604181348
119.84929802156411
120.62391058135894
121.95823107752419
124.04302848789469
127.13611665197637
131.56171595037074
137.7043801199318
145.99581786017464
156.89371998432912
170.85298628321274
188.29149895588256
209.5538115709908
234.8773434332924
264.3659102256327
282.3296052621795
249.06516818763942
220.57308372551236
196.61628394995714
176.8566706928641
160.87972436842705
148.2228306389828
138.403770864001
130.9475566882481
125.4084592163723
121.38667199796197
118.53875775632775
116.58282533805261
115.29954655402253
114.5306406340111
114.1765686793068
114.19474496304366
114.5992503629888
115.46232472202996
116.91724362558578
119.1614746294737
122.45848988355452
127.13611364927476
133.57957042947112
142.21747874563152
153.50032016791744
167.8719258278211
185.73608039213437
207.42182334497357
233.15145558672904
263.0161043024139
275.64172161113004
243.11666379223396
215.1984926752306
191.67386788764497
172.2303827118001
156.4785286883849
143.97778936446136
134.26464915152943
126.87903714303064
121.38667126693817
117.39630969239263
114.57087157680685
112.63333815512807
111.36836443412842
110.62135349085804
110.29654685288031
110.35550678612378
110.81692525055892
111.75800639853337
113.3170084862899
115.69590073613078
119.16147990821598
124.04302949596972
130.72470929307892
139.63123477117836
151.20627998170357
165.8844575702511
184.0588849661537
206.0476962097301
232.0636379913016
262.1908898615384
270.82596503680384
238.87597485967035
211.39107192066075
188.1837518577148
168.96647390338322
153.37195679134274
140.97830122126888
131.3369338727171
123.9990345229088
118.53875718806708
114.57087681660606
111.76273301563641
109.84067965082376
108.59220987789097
107.86545094531665
107.56750704426227
107.66310979515528
108.17440961216464
109.18219996099533
110.82814672813555
113.3170129440122
116.91724655511295
121.95822948571086
128.8222706648993
137.93017741807333
149.71990864410748
164.61906289995858
183.0133756941161
205.21418696086292
231.4291796846164
261.7402068121279
267.43891732907343
235.92339204477224
208.7571916427725
185.7776143714223
166.71948483025648
151.23401108017995
138.91417056328393
129.32266245966957
122.01888671178654
116.58282887168139
112.63333529280594
109.84067774985682
107.93343337581565
106.7010651305655
105.99366367112196
105.72046203806401
105.84854442904147
106.4025732975924
107.46583162628629
109.18219538241804
111.7580050466632
115.4623289234504
120.62390488674858
127.62304833793117
136.87724585078578
148.82014266806374
163.87460128932997
182.42185604053242
204.76992300605244
231.1250761728553
261.5705874180711
265.11368316569605
233.91854481259728
206.98221220514262
184.1641951775895
165.217971563815
149.80952535234687
137.5431408698617
127.9895045436758
120.71373236852898
115.29955149966689
111.36836122832389
108.59221044569799
106.70106464021366
105.48569614959008
104.79756831995044
104.54747665396053
104.70422306465004
105.29426224497328
106.40257252682184
108.17441098419539
110.81692523023591
114.59925303895537
119.8492975196547
126.94563550326414
136.3033148342557
148.3531570195672
163.5153896515364
182.16936105903224
204.62269022111644
231.08346911948948
261.63948652725725
263.5599070909183
232.5972660784728
205.8257413346353
183.12370475047334
164.25928188095742
148.909676658414
136.68716965015926
127.16786825118335
119.92039616819915
114.53063959383938
110.62135372663379
107.86545231053947
105.99366306123542
104.79756920561653
104.12960376270394
103.90171810873855
104.0840027715178
104.70422248086128
105.84854311563133
107.6631083665643
110.35550692357698
114.1947432592907
119.50803047453718
126.67275986426188
136.10254434776735
148.22690520280852
163.46532800323055
182.19764360395482
204.7337302342177
231.28649563381043
261.95150511057176
262.5579950145832
231.76453205808966
205.11436684272195
182.50076820517285
163.70297479653038
148.40619747753524
136.22777871757785
126.74710246443887
119.53445614322155
114.17656806440017
110.2965477206761
107.56750396836246
105.72046248470427
104.54747556186312
103.90171816022354
103.69607884852267
103.90171850342021
104.54747603903586
105.72046372945461
107.567505382492
110.29654624801172
114.17657140467193
119.53445314619967
126.74710719802557
136.2277843777723
148.40619272923894
163.7029873173117
182.5007586567642
205.11438479264743
231.76449954749904
262.5579969022434
261.95153592873413
231.28647590393086
204.73375578647375
182.19766691439773
163.4653250889077
148.22691959753857
136.1025452957066
126.6727672101078
119.50803064869474
114.19474804641517
110.3555108982873
107.66310858472855
105.84854667968115
104.70422294458247
104.08400314494435
103.90171876110604
104.12960431129106
104.79756781767341
105.99366377944385
107.86545030631174
110.62135104011158
114.53064014461145
119.92039119302098
127.16786798253797
136.68715850908777
148.90967922822315
164.25926246862466
183.12368270406083
205.82575585178097
232.5972317986562
263.5599043952229
261.6395191205926
231.08344820723713
204.62270092943623
182.1693450912436
163.51539483576568
148.35314928733916
136.30330838140947
126.9456391428782
119.84929291667733
114.59925496542503
110.81692319050802
108.17440919357318
106.40257172479268
105.29426161464902
104.70422364542831
104.54747677229096
104.79756852872235
105.48569695215576
106.70106554678216
108.5922093383729
111.36836355081599
115.29954908418381
120.71373573136127
127.9895085339773
137.54313663997266
149.80953474011267
165.21796250332613
184.16420831406268
206.9821796985059
233.91854030131287
265.11371200530897
261.5705505252133
231.12508886843412
204.76993446636664
182.42183880318427
163.87460752540903
148.82013469782777
136.8772480624881
127.6230429330811
120.62390697715587
115.46233102816322
111.75800283460794
109.18219860060083
107.46583077254485
106.40257265441984
105.84854433124025
105.72046202750772
105.99366294046796
106.70106581983465
107.93343250116907
109.8406768234419
112.6333371816934
116.58282743274108
122.01888970621926
129.32265816916174
138.914178422853
151.23400260852546
166.71947558367216
185.77763703092836
208.75717377838217
235.92340178661584
267.4389606704467
261.7401861171878
231.42919114534223
205.21416678032236
183.0133810114927
164.61905276055523
149.7199002459503
137.93018181891955
128.8222646501697
121.958232001668
116.91724381418292
113.31701053570092
110.8281455566607
109.18219898717723
108.17441080451222
107.66310975131213
107.5675070387174
107.86545140842411
108.59221039512344
109.8406788474313
111.76273457991302
114.57087493980092
118.53875955889329
123.99903728658563
131.33693032104378
140.9783082523288
153.37194885942782
168.96648420283265
188.1837233173371
211.39106767666578
238.87600161490914
270.8260237725793
262.19090022528326
232.06364860991468
206.04767449521052
184.05889154748357
165.88444747222894
151.20628259929234
139.63122786218256
130.72471200737786
124.04303228358248
119.1614770071115
115.69590518113499
113.31700735899659
111.75800549744812
110.8169249442256
110.35550650941971
110.29654667427184
110.62135393349219
111.3683638145523
112.63333753606958
114.57087284378571
117.39630855369417
121.38667337112369
126.87903371383267
134.26465512019652
143.9777823450329
156.47852115943292
172.23040185901434
191.67385392045978
215.19850528127873
243.11671274793406
275.6416477360559
263.0161121687606
233.151429597804
207.42182863305496
185.7360679501181
167.87191560757753
153.50032557429583
142.21747137678085
133.57957373578273
127.13611023451182
122.4584868700565
119.16147308977528
116.917242285146
115.46232658209722
114.59925023436948
114.19474480568991
114.17656890245952
114.53064087118405
115.29954601642336
116.58282638072694
118.53875637547935
121.38667372231066
125.40846115482833
130.9475539353769
138.40377632151865
148.2228243517565
160.8797332954976
176.8566478543751
196.6162836771664
220.5731152652821
249.06524238221493
282.3295737374693
264.3659397410216
234.87733818395884
209.55383737024678
188.29150354513592
170.85300430473828
156.8937248977749
145.9958333114804
137.70439464473145
131.56172244989872
127.1361319302871
124.04303611919227
121.95823858153395
120.62391847430035
119.84930567573956
119.50804435395875
119.53446110670615
119.92040375626277
120.71374169213473
122.01889775156475
123.99904845774054
126.87903972229448
130.9475637451679
136.5568917050823
144.11847046727644
154.09298015511794
166.97417915321836
183.26641435418347
203.45728234555497
227.98699546623163
257.2174129969931
291.40347971552893
266.45346972177805
237.49359851776344
212.73157474360832
192.0437067790673
175.17088537332404
161.74798945875992
151.3401236787285
143.48028466801975
137.70438518789595
133.57958047001773
130.7247217335219
128.82227720392643
127.62306105805132
126.94564108561656
126.67277211673205
126.74711172220744
127.16787965056376
127.98952171705645
129.32266451829335
131.33694237617948
134.2646574222777
138.4037824905544
144.11846722811146
151.83529803657856
162.03372524602418
175.22970001704283
191.95247165345702
212.7153030468756
237.98216044289828
268.1329162653599
303.4302332323454
269.5602060023694
241.32364679090946
217.31492687294494
197.38151881914376
181.23546199235216
168.48655541292229
158.68092712384464
151.34011283636508
145.9958295235471
142.21748547863027
139.63124480300706
137.93017562624635
136.8772547968678
136.30331462435305
136.10255370904065
136.22779527383858
136.68716548242503
137.54314606109983
138.91417873392712
140.97831611447603
143.97778205320165
148.22283002454006
154.09299088809044
162.03371872581772
172.54675959105708
186.17287950919837
203.466964739166
224.96592303681544
251.1516006186711
282.4115859057312
319.0013109200512
274.0363374543706
246.7597218213706
223.7295899614349
204.75419538829317
189.50978092413519
177.57801989407108
168.4865435424895
161.7479849911261
156.8937172573218
153.50032019997658
151.20628388722002
149.7198979957556
148.82014607309833
148.3531618421023
148.2269065797698
148.40619710294965
148.9096795049537
149.80953822573167
151.23399464513
153.37194946415204
156.47852624078703
160.87972850597617
166.9741751721016
175.22970288037598
186.17287555110843
200.37008088229024
218.39969503813268
240.81631465524902
268.1091931256565
300.6584587832624
338.6933164685169
280.29557284784227
254.25350722775798
232.45285091486693
214.6518141851111
200.48604885509923
189.50978819183348
181.2354569039818
175.1708555155626
170.85297470355536
167.87191561976633
165.88444832811865
164.61905706818627
163.87459307440767
163.51538431392436
163.4653179141911
163.70298038618532
164.25925057040732
165.21795515774474
166.71947277249674
168.9664756472475
172.23038996042175
176.85664445933145
183.26640726112487
191.95246655371008
203.46695285411934
218.39968673510955
237.34651123947773
260.8690033999081
289.4483768563124
323.43785073697984
363.0189089547471
288.8020453109674
264.29807696095696
243.98949434625553
227.57488241112705
214.65187825548134
204.75420877490757
197.381543248073
192.04372325904637
188.29152831326607
185.7361305935529
184.05891380400757
183.0134091653988
182.42188409443438
182.1693931857635
182.19767025650515
182.50079003175736
183.12373083856977
184.16423756656303
185.77765836148595
188.18376143199637
191.67388544505508
196.61631068037275
203.45731491206158
212.71532428827922
224.96594124358361
240.8163330936512
260.86904158969116
285.6768590362066
315.6926642094951
351.220067423595
392.3717772715415
300.05126225180504
277.4036392832604
258.8360649034334
243.98946955298015
232.45289444753146
223.72961542688427
217.3149615563011
212.73160741741768
209.553831110325
207.42186200804247
206.0477133845325
205.21420967362005
204.76993960916528
204.62271196777422
204.7337721020858
205.1144040013747
205.82578180132475
206.98221200626443
208.75719816120096
211.3910986838068
215.19852937431676
220.5731280555106
227.98702142281908
237.98217364748217
251.15162512818665
268.1092101669766
289.4483963810668
315.692660299745
347.2420369059126
384.324998766754
426.9683406093676
314.5540129151964
294.07638515050866
277.4036166394751
264.29806276857056
254.2535397459963
246.7597644453566
241.32363394802482
237.49359675075317
234.8773475777335
233.1514818488468
232.06363860877133
231.42918570459378
231.12510776509146
231.08347440010613
231.28650848523773
231.76451896234818
232.59725828616413
233.91855671450628
235.9234096373938
238.8760171273772
243.11672007263968
249.0652427622441
257.2174374418474
268.1329231950464
282.41159732575875
300.6584712656315
323.4378644822166
351.22006685852597
384.3249900374013
422.8666594259942
466.78025320615257
332.99746048572473
314.553983953057
300.0512463662573
288.80204583448227
280.2955676968606
274.0363406787915
269.56020826830877
266.4534847115404
264.36589042039833
263.01611084009124
262.19090336106206
261.74019283743206
261.5705831223873
261.6394877862625
261.95151355982097
262.55799524973776
263.55991105919
265.1137100495228
267.43895102989904
270.82602196391804
275.64164830583377
282.32956448126026
291.4034868498858
303.43022651392124
319.0013016152133
338.6933091826367
363.01891431288004
392.37176412327085
426.96831610178634
466.7802364491533
511.0984448529863
