# vtk DataFile Version 2.0
Unstructured Grid Example
ASCII
DATASET UNSTRUCTURED_GRID

POINTS 961 float
0.150000006 -0.00839745998 0
0.146666661 -0.00839745998 0
0.143333331 -0.00839745998 0
0.140000001 -0.00839745998 0
0.13666667 -0.00839745998 0
0.13333334 -0.00839745998 0
0.129999995 -0.00839745998 0
0.126666665 -0.00839745998 0
0.123333335 -0.00839745998 0
0.119999997 -0.00839745998 0
0.116666667 -0.00839745998 0
0.113333337 -0.00839745998 0
0.109999999 -0.00839745998 0
0.106666669 -0.00839745998 0
0.103333332 -0.00839745998 0
0.100000001 -0.00839745998 0
0.0966666639 -0.00839745998 0
0.0933333337 -0.00839745998 0
0.0900000036 -0.00839745998 0
0.086666666 -0.00839745998 0
0.0833333358 -0.00839745998 0
0.0799999982 -0.00839745998 0
0.0766666681 -0.00839745998 0
0.0733333305 -0.00839745998 0
0.0700000003 -0.00839745998 0
0.0666666701 -0.00839745998 0
0.0633333325 -0.00839745998 0
0.0599999987 -0.00839745998 0
0.0566666685 -0.00839745998 0
0.0533333346 -0.00839745998 0
0.0500000007 -0.00839745998 0
0.148333326 -0.0112842107 0
0.144999996 -0.0112842107 0
0.141666666 -0.0112842107 0
0.138333336 -0.0112842107 0
0.135000005 -0.0112842107 0
0.13166666 -0.0112842107 0
0.12833333 -0.0112842107 0
0.125 -0.0112842107 0
0.12166667 -0.0112842107 0
0.118333332 -0.0112842107 0
0.115000002 -0.0112842107 0
0.111666664 -0.0112842107 0
0.108333334 -0.0112842107 0
0.104999997 -0.0112842107 0
0.101666667 -0.0112842107 0
0.0983333364 -0.0112842107 0
0.0949999988 -0.0112842107 0
0.0916666687 -0.0112842107 0
0.088333331 -0.0112842107 0
0.0850000009 -0.0112842107 0
0.0816666633 -0.0112842107 0
0.0783333331 -0.0112842107 0
0.075000003 -0.0112842107 0
0.0716666654 -0.0112842107 0
0.0683333352 -0.0112842107 0
0.0649999976 -0.0112842107 0
0.0616666675 -0.0112842107 0
0.0583333336 -0.0112842107 0
0.0549999997 -0.0112842107 0
0.0516666658 -0.0112842107 0
0.0483333319 -0.0112842107 0
0.146666661 -0.0141709624 0
0.143333331 -0.0141709624 0
0.140000001 -0.0141709624 0
0.13666667 -0.0141709624 0
0.13333334 -0.0141709624 0
0.129999995 -0.0141709624 0
0.126666665 -0.0141709624 0
0.123333335 -0.0141709624 0
0.119999997 -0.0141709624 0
0.116666667 -0.0141709624 0
0.113333337 -0.0141709624 0
0.109999999 -0.0141709624 0
0.106666669 -0.0141709624 0
0.103333332 -0.0141709624 0
0.100000001 -0.0141709624 0
0.0966666639 -0.0141709624 0
0.0933333337 -0.0141709624 0
0.0900000036 -0.0141709624 0
0.086666666 -0.0141709624 0
0.0833333358 -0.0141709624 0
0.0799999982 -0.0141709624 0
0.0766666681 -0.0141709624 0
0.0733333305 -0.0141709624 0
0.0700000003 -0.0141709624 0
0.0666666701 -0.0141709624 0
0.0633333325 -0.0141709624 0
0.0599999987 -0.0141709624 0
0.0566666685 -0.0141709624 0
0.0533333346 -0.0141709624 0
0.0500000007 -0.0141709624 0
0.0466666669 -0.0141709624 0
0.144999996 -0.0170577131 0
0.141666666 -0.0170577131 0
0.138333336 -0.0170577131 0
0.135000005 -0.0170577131 0
0.13166666 -0.0170577131 0
0.12833333 -0.0170577131 0
0.125 -0.0170577131 0
0.12166667 -0.0170577131 0
0.118333332 -0.0170577131 0
0.115000002 -0.0170577131 0
0.111666664 -0.0170577131 0
0.108333334 -0.0170577131 0
0.104999997 -0.0170577131 0
0.101666667 -0.0170577131 0
0.0983333364 -0.0170577131 0
0.0949999988 -0.0170577131 0
0.0916666687 -0.0170577131 0
0.088333331 -0.0170577131 0
0.0850000009 -0.0170577131 0
0.0816666633 -0.0170577131 0
0.0783333331 -0.0170577131 0
0.075000003 -0.0170577131 0
0.0716666654 -0.0170577131 0
0.0683333352 -0.0170577131 0
0.0649999976 -0.0170577131 0
0.0616666675 -0.0170577131 0
0.0583333336 -0.0170577131 0
0.0549999997 -0.0170577131 0
0.0516666658 -0.0170577131 0
0.0483333319 -0.0170577131 0
0.0450000018 -0.0170577131 0
0.143333331 -0.0199444648 0
0.140000001 -0.0199444648 0
0.13666667 -0.0199444648 0
0.13333334 -0.0199444648 0
0.129999995 -0.0199444648 0
0.126666665 -0.0199444648 0
0.123333335 -0.0199444648 0
0.119999997 -0.0199444648 0
0.116666667 -0.0199444648 0
0.113333337 -0.0199444648 0
0.109999999 -0.0199444648 0
0.106666669 -0.0199444648 0
0.103333332 -0.0199444648 0
0.100000001 -0.0199444648 0
0.0966666639 -0.0199444648 0
0.0933333337 -0.0199444648 0
0.0900000036 -0.0199444648 0
0.086666666 -0.0199444648 0
0.0833333358 -0.0199444648 0
0.0799999982 -0.0199444648 0
0.0766666681 -0.0199444648 0
0.0733333305 -0.0199444648 0
0.0700000003 -0.0199444648 0
0.0666666701 -0.0199444648 0
0.0633333325 -0.0199444648 0
0.0599999987 -0.0199444648 0
0.0566666685 -0.0199444648 0
0.0533333346 -0.0199444648 0
0.0500000007 -0.0199444648 0
0.0466666669 -0.0199444648 0
0.043333333 -0.0199444648 0
0.141666666 -0.0228312165 0
0.138333336 -0.0228312165 0
0.135000005 -0.0228312165 0
0.13166666 -0.0228312165 0
0.12833333 -0.0228312165 0
0.125 -0.0228312165 0
0.12166667 -0.0228312165 0
0.118333332 -0.0228312165 0
0.115000002 -0.0228312165 0
0.111666664 -0.0228312165 0
0.108333334 -0.0228312165 0
0.104999997 -0.0228312165 0
0.101666667 -0.0228312165 0
0.0983333364 -0.0228312165 0
0.0949999988 -0.0228312165 0
0.0916666687 -0.0228312165 0
0.088333331 -0.0228312165 0
0.0850000009 -0.0228312165 0
0.0816666633 -0.0228312165 0
0.0783333331 -0.0228312165 0
0.075000003 -0.0228312165 0
0.0716666654 -0.0228312165 0
0.0683333352 -0.0228312165 0
0.0649999976 -0.0228312165 0
0.0616666675 -0.0228312165 0
0.0583333336 -0.0228312165 0
0.0549999997 -0.0228312165 0
0.0516666658 -0.0228312165 0
0.0483333319 -0.0228312165 0
0.0450000018 -0.0228312165 0
0.0416666679 -0.0228312165 0
0.140000001 -0.0257179681 0
0.13666667 -0.0257179681 0
0.13333334 -0.0257179681 0
0.129999995 -0.0257179681 0
0.126666665 -0.0257179681 0
0.123333335 -0.0257179681 0
0.119999997 -0.0257179681 0
0.116666667 -0.0257179681 0
0.113333337 -0.0257179681 0
0.109999999 -0.0257179681 0
0.106666669 -0.0257179681 0
0.103333332 -0.0257179681 0
0.100000001 -0.0257179681 0
0.0966666639 -0.0257179681 0
0.0933333337 -0.0257179681 0
0.0900000036 -0.0257179681 0
0.086666666 -0.0257179681 0
0.0833333358 -0.0257179681 0
0.0799999982 -0.0257179681 0
0.0766666681 -0.0257179681 0
0.0733333305 -0.0257179681 0
0.0700000003 -0.0257179681 0
0.0666666701 -0.0257179681 0
0.0633333325 -0.0257179681 0
0.0599999987 -0.0257179681 0
0.0566666685 -0.0257179681 0
0.0533333346 -0.0257179681 0
0.0500000007 -0.0257179681 0
0.0466666669 -0.0257179681 0
0.043333333 -0.0257179681 0
0.0399999991 -0.0257179681 0
0.138333336 -0.0286047198 0
0.135000005 -0.0286047198 0
0.13166666 -0.0286047198 0
0.12833333 -0.0286047198 0
0.125 -0.0286047198 0
0.12166667 -0.0286047198 0
0.118333332 -0.0286047198 0
0.115000002 -0.0286047198 0
0.111666664 -0.0286047198 0
0.108333334 -0.0286047198 0
0.104999997 -0.0286047198 0
0.101666667 -0.0286047198 0
0.0983333364 -0.0286047198 0
0.0949999988 -0.0286047198 0
0.0916666687 -0.0286047198 0
0.088333331 -0.0286047198 0
0.0850000009 -0.0286047198 0
0.0816666633 -0.0286047198 0
0.0783333331 -0.0286047198 0
0.075000003 -0.0286047198 0
0.0716666654 -0.0286047198 0
0.0683333352 -0.0286047198 0
0.0649999976 -0.0286047198 0
0.0616666675 -0.0286047198 0
0.0583333336 -0.0286047198 0
0.0549999997 -0.0286047198 0
0.0516666658 -0.0286047198 0
0.0483333319 -0.0286047198 0
0.0450000018 -0.0286047198 0
0.0416666679 -0.0286047198 0
0.038333334 -0.0286047198 0
0.13666667 -0.0314914696 0
0.13333334 -0.0314914696 0
0.129999995 -0.0314914696 0
0.126666665 -0.0314914696 0
0.123333335 -0.0314914696 0
0.119999997 -0.0314914696 0
0.116666667 -0.0314914696 0
0.113333337 -0.0314914696 0
0.109999999 -0.0314914696 0
0.106666669 -0.0314914696 0
0.103333332 -0.0314914696 0
0.100000001 -0.0314914696 0
0.0966666639 -0.0314914696 0
0.0933333337 -0.0314914696 0
0.0900000036 -0.0314914696 0
0.086666666 -0.0314914696 0
0.0833333358 -0.0314914696 0
0.0799999982 -0.0314914696 0
0.0766666681 -0.0314914696 0
0.0733333305 -0.0314914696 0
0.0700000003 -0.0314914696 0
0.0666666701 -0.0314914696 0
0.0633333325 -0.0314914696 0
0.0599999987 -0.0314914696 0
0.0566666685 -0.0314914696 0
0.0533333346 -0.0314914696 0
0.0500000007 -0.0314914696 0
0.0466666669 -0.0314914696 0
0.043333333 -0.0314914696 0
0.0399999991 -0.0314914696 0
0.0366666652 -0.0314914696 0
0.135000005 -0.0343782231 0
0.13166666 -0.0343782231 0
0.12833333 -0.0343782231 0
0.125 -0.0343782231 0
0.12166667 -0.0343782231 0
0.118333332 -0.0343782231 0
0.115000002 -0.0343782231 0
0.111666664 -0.0343782231 0
0.108333334 -0.0343782231 0
0.104999997 -0.0343782231 0
0.101666667 -0.0343782231 0
0.0983333364 -0.0343782231 0
0.0949999988 -0.0343782231 0
0.0916666687 -0.0343782231 0
0.088333331 -0.0343782231 0
0.0850000009 -0.0343782231 0
0.0816666633 -0.0343782231 0
0.0783333331 -0.0343782231 0
0.075000003 -0.0343782231 0
0.0716666654 -0.0343782231 0
0.0683333352 -0.0343782231 0
0.0649999976 -0.0343782231 0
0.0616666675 -0.0343782231 0
0.0583333336 -0.0343782231 0
0.0549999997 -0.0343782231 0
0.0516666658 -0.0343782231 0
0.0483333319 -0.0343782231 0
0.0450000018 -0.0343782231 0
0.0416666679 -0.0343782231 0
0.038333334 -0.0343782231 0
0.0350000001 -0.0343782231 0
0.13333334 -0.0372649729 0
0.129999995 -0.0372649729 0
0.126666665 -0.0372649729 0
0.123333335 -0.0372649729 0
0.119999997 -0.0372649729 0
0.116666667 -0.0372649729 0
0.113333337 -0.0372649729 0
0.109999999 -0.0372649729 0
0.106666669 -0.0372649729 0
0.103333332 -0.0372649729 0
0.100000001 -0.0372649729 0
0.0966666639 -0.0372649729 0
0.0933333337 -0.0372649729 0
0.0900000036 -0.0372649729 0
0.086666666 -0.0372649729 0
0.0833333358 -0.0372649729 0
0.0799999982 -0.0372649729 0
0.0766666681 -0.0372649729 0
0.0733333305 -0.0372649729 0
0.0700000003 -0.0372649729 0
0.0666666701 -0.0372649729 0
0.0633333325 -0.0372649729 0
0.0599999987 -0.0372649729 0
0.0566666685 -0.0372649729 0
0.0533333346 -0.0372649729 0
0.0500000007 -0.0372649729 0
0.0466666669 -0.0372649729 0
0.043333333 -0.0372649729 0
0.0399999991 -0.0372649729 0
0.0366666652 -0.0372649729 0
0.0333333351 -0.0372649729 0
0.13166666 -0.0401517227 0
0.12833333 -0.0401517227 0
0.125 -0.0401517227 0
0.12166667 -0.0401517227 0
0.118333332 -0.0401517227 0
0.115000002 -0.0401517227 0
0.111666664 -0.0401517227 0
[...]
POINT_DATA 961
SCALARS Temp float 1
LOOKUP_TABLE default
568.3579206320619
527.0286466495079
488.9557141219964
454.728871414632
424.48517649460916
398.2068567744172
375.75371173137194
356.8890877360405
341.3048540854888
328.64746931863294
318.54226807426113
310.6147898130733
304.50864123088786
299.8991523266459
296.50286824946323
294.083723520283
292.4563330508986
291.4875049139532
291.09663446689297
291.255669179457
291.9889362305869
293.37285023138355
295.53517423217994
298.6533455136864
302.9510772539274
308.6928093704393
316.17554053714974
325.71844489634725
337.6524044814758
352.3163762676627
370.2001567764698
527.0286581577864
485.67633269385567
448.24129464703185
414.87435352065586
385.6252249576841
360.4090884366041
339.0302354508733
321.20626874475323
306.59467069075544
294.81838746867027
285.48959099516554
278.22978815799485
272.6862356740781
268.54379878965887
265.5331401030626
263.43550685472474
262.08522626543845
261.3706633595395
261.2343791877875
261.67304019487983
262.7372089635229
264.5308688267169
267.21027211429924
270.98141602051794
276.09545553671114
282.84163094595715
291.5373193365045
302.5161580794234
316.11558080851523
332.6709597079621
352.3163956446141
488.9556679478475
448.24127045818267
411.64308884217536
379.26029281903226
351.0677800094805
326.92235313172586
306.5818261836366
289.7287605049307
275.9967366037812
264.99530661172474
256.3321801329715
249.63204457905354
244.55115142126942
240.78763784549176
238.08842328760127
236.25305061284777
235.13562076107092
234.64545839440407
234.74725122832876
235.46096915563288
236.86160321135318
239.07841159601918
242.29316087385257
246.73655019871245
252.68228604108492
260.43815487748526
270.33395782519
282.7064649448189
297.8798979093461
316.11557222495395
337.6524167837546
454.7288073208438
414.87431371221624
379.26028892791163
347.9310863507484
320.80656878481665
297.69757709712627
278.3263671351371
262.3515303986078
249.39292843217072
239.05546190693212
230.94960512677042
224.70859620974417
220.00121528691636
216.5409759894757
214.09184347968053
212.47154632595257
211.55317495241812
211.26579403928295
211.59464945265154
212.58111985686722
214.32231590554946
216.96993692076168
220.7276974910966
225.84657894832168
232.61733800701137
241.35952883293086
252.40709651098572
266.0895677601542
282.7064827704757
302.51617116442384
325.7184365720802
424.4851069516138
385.6251805769724
351.0677511297636
320.80666974327943
294.71764739372736
272.5769940879309
254.083012916738
238.88048825671208
226.58456314624817
216.8025553985861
209.15307741559974
203.281408085318
198.87089309774956
195.65108335419606
193.40276102873523
191.9609280630206
191.2162905677086
191.11598622651408
191.66387527714033
192.92048688568357
195.00238313663317
198.0804679597764
202.3764565250689
208.15691182806717
215.72405282104776
225.4029182359208
237.52481138457702
252.4070885711947
270.3339519568542
291.5373190541651
316.1755451216477
398.2067779340051
360.40914244503557
326.9224234032931
297.6975376585439
272.57697725401243
251.31318365628863
233.59095672230703
219.05023140756074
207.30851510562178
197.98093020699446
190.69776556342552
185.11818559135318
180.94078080177025
177.91076487509423
175.82473227724213
174.53349609365776
173.943651526754
174.0184567111402
174.77819999805695
176.30006080913304
178.71714942081124
182.21612985973087
187.0327127036133
193.44442243493054
201.75984892910296
212.30446972638063
225.4029130174429
241.35953056669194
260.4381609169741
282.84160783406446
308.69280825083155
375.7537301017544
339.03026958239707
306.5818875759161
278.3263180459039
254.08298847237236
233.59094781666698
216.530191195241
202.54307471200113
191.25464509118584
182.2913669563618
175.2970225520086
169.9453016233102
165.9495798341606
163.0696742414444
161.11648527822874
159.95485126706046
159.5053244155779
159.74518139265757
160.7088292783151
162.48750130737338
165.22787011328063
169.1289232290664
174.43654939289746
181.4350827245529
190.43542152889137
201.7598429666194
215.72404094368818
232.6173212899659
252.68228846881075
276.0954551406925
302.9510847300037
356.8891060785925
321.20630045398826
289.7286863949825
262.351479893558
238.88049515339978
219.05025418712148
202.54306742922776
189.00885213898064
178.08372671426866
169.40737607014094
162.63751689338898
157.4619713186447
153.60772926850268
150.84767516476236
149.0052204123353
147.95732878525115
147.63650358114006
148.031902659444
149.18972726720398
151.2126862163163
154.25811306976752
158.53414340509806
164.2934309840274
171.82368254562968
181.435078153165
193.44441511752518
208.156916875079
225.84658134612397
246.7365342746352
270.9813958288069
298.6533334621808
341.3048627121814
306.59470659606717
275.9966971506048
249.39291325455068
226.58457040551548
207.30849416848528
191.2546362831911
178.08375042231495
167.4448985309073
158.99140800614313
152.39451460534403
147.35494359683344
143.6117534502654
140.94911619257255
139.20105293765334
138.25474174160496
138.05265921845523
138.5937752389184
139.93385692904812
142.18464812045642
145.51147481398178
150.12883145180072
156.29330292770007
164.2934356414589
174.43655409162582
187.03271441722265
202.3764555393411
220.72769263841388
242.29316336344692
267.2102819898615
295.5351937384649
328.64751906083063
294.8183234858517
264.9952781093163
239.05545251515417
216.80256575593572
197.9809297882532
182.29137873573256
169.4073670476802
158.99140110455485
150.7098147444165
144.24623880416837
139.3126531667574
135.6584094990152
133.07710026800964
131.41152387297228
130.55724101471623
130.46483402147643
131.14115438376263
132.64948262669282
135.1083983568337
138.68893777977468
143.60963690737339
150.12882764278297
158.53414356759825
169.12892177102677
182.21612694787356
198.08046401040136
216.96991673177888
239.07839620567793
264.5308516438773
293.37284232388197
318.5423433566409
285.4895388958376
256.3321589149253
230.94961823415625
209.153060903152
190.69776617366716
175.2970352300985
162.6375202885411
152.3945219977549
144.2462375600809
137.8869898122021
133.03824502110697
129.4578208776395
126.94690773229799
125.35536736235214
124.5854512209433
124.59417106948312
125.39453059109485
127.05552178154036
129.70067991576607
133.5048900171989
138.6889457531766
145.51147617266372
154.2581095754333
165.22786452136572
178.71714956519023
195.00238090643737
214.32231355249047
236.8616087609874
262.73721628828093
291.98892442807823
310.6147303302994
278.2297598810653
249.632044726561
224.708612481788
203.28139209463504
185.1181978874524
169.9452929910724
157.46197446113607
147.354932249887
139.31265202632324
133.03825410416852
128.26086722641872
124.7449888477952
122.29777184524976
120.77459598076203
120.0829015508162
120.1846729634035
121.09758469932216
122.89483478461194
125.70343197689338
129.70068691343732
135.1084028553202
142.18464595201746
151.21269636643598
162.48751190672462
176.30007330528957
192.92048019062162
212.58111211576542
235.46097209691604
261.67304340592
291.2556828710525
304.50860768446654
272.6862237961011
244.55116518791647
220.0011967399117
198.8708957424961
180.94080063093284
165.94957607321876
153.60773659538523
143.61174984782488
135.65841496324498
129.4578160541532
124.74498550509674
121.28944095319436
118.90284872459152
117.44475205440258
116.82653491052754
117.01393484257356
118.02810652023507
119.945275455107
122.89482703719898
127.05551958802006
132.6494891353754
139.93384934031653
149.18972483544388
160.70882575022137
174.77819562986969
191.66387343630603
211.59464784965596
234.74725889667627
261.2343565778662
291.09663869895206
299.89912136261535
268.5437971960853
240.78766354978944
216.54095926318217
195.65108921400534
177.9107479012388
163.06967775380426
150.8476671548871
140.9491133768989
133.07710753478517
126.9469024407823
122.29777335870287
118.90284788593851
116.57706267061403
115.1829917062224
114.63496892533138
114.90153544550705
116.00643512625979
118.02810519299119
121.09758711954329
125.39453080330571
131.1411585993083
138.5937746881532
148.0319090769877
159.74519101040687
174.0184513596124
191.11598034799053
211.26578792406633
234.6454603226401
261.3706668597318
291.48750352162784
296.50286260801875
265.5331561997096
238.08840383231546
214.0918414031902
193.40278451989894
175.82472968621565
161.11649793326342
149.005218170526
139.20105199226023
131.41152243451094
125.35536792609183
120.77459835495331
117.4447508848797
115.1829935080682
113.8540907412106
113.37457311751992
113.71513752204066
114.90153436638496
117.01393253171457
120.18467069451623
124.5941714403089
130.46483164491377
138.05265166936442
147.63650178451584
159.50532194812618
173.94365023556733
191.21628925641278
211.55317473222436
235.13560248513616
262.085223263059
292.4563257122742
294.0837217624496
263.4355273335898
236.25303787676336
212.4715520693577
191.9609095928747
174.53349651187287
159.9548383717737
147.9573309197559
138.25474654460785
130.55724040128422
124.5854527809662
120.08289658725273
116.82653592870841
114.6349668974734
113.37457322874434
112.96360925498001
113.37457389379767
114.63496780219268
116.82653807239234
120.08289895213635
124.58545033149426
130.55724516891974
138.25474233984983
147.95733691031674
159.95484529676585
174.5334907253686
191.96092362116173
212.47154175488262
236.25305610208443
263.4354948082321
294.08372420212584
292.4563554749632
262.0852027578913
235.1356283529386
211.55319904871362
191.21628594625074
173.943666723266
159.5053231179739
147.6365114927014
138.05265191974797
130.46483890685485
124.59417780795971
120.18467114479789
117.01393900612986
114.90153527377397
113.71513825838007
113.37457440483678
113.85409182869446
115.18299084998719
117.44475233124454
120.77459516336341
125.35536389789603
131.41152380345258
139.2010455324726
149.0052185448335
161.11648516693234
175.82473360836028
193.40276414023964
214.09181904954664
238.088420944825
265.53312371431645
296.50286322864747
291.4875361162132
261.3706464490512
234.64547148327014
211.26577106318504
191.11598646463128
174.01844260195287
159.74518346747834
148.0319138960677
138.5937686503259
131.1411615854315
125.39452766163153
121.09758427339116
118.02810376724887
116.0064339765096
114.90153652647435
114.63496915712359
115.18299213226165
116.57706417243033
118.90284954421493
122.2977713873376
126.94690607388081
133.0771039230519
140.94911801249742
150.8476724631577
163.0696723395192
177.9107591208548
195.65107899832316
216.54097324476467
240.7876299932756
268.5437931888866
299.8991518624149
291.09660251108227
261.2343693695262
234.74727075557365
211.59463017069686
191.66388049352113
174.77818679930468
160.70882882625534
149.1897180287183
139.93385246691832
132.64949230217593
127.05551623186838
122.894832481553
119.94527397223393
118.02810536809159
117.0139346904351
116.82653494241491
117.44475045695877
118.90285003945381
121.28943931291766
124.74498379777386
129.45781916956958
135.65841268048945
143.61175405339674
153.6077309904528
165.9495857192953
180.9407906381939
198.87088508627235
220.0012215193053
244.55114609853163
272.6862336270741
304.5086512475203
291.2556630143212
261.6730551269665
235.46095193484408
212.5811182759479
192.92046943180057
176.3000641249573
162.48751739001665
151.21268903639321
142.1846495591476
135.10839893456352
129.70068336341478
125.70343002649416
122.89483313189298
121.09758685216674
120.18467283543677
120.08290156401979
120.77459693211445
122.2977728996906
124.74498730604621
128.26086991009805
133.03825106087118
139.3126555533268
147.35493621568543
157.46196951230434
169.94530184358774
185.1181881697704
203.28140314166185
224.70858084467326
249.6320390331059
278.2297850986543
310.61478360094054
291.988935256167
262.7372272973639
236.8615875551682
214.32232075568763
195.0023703463486
178.71715299154167
165.2278563956032
154.25811332409205
145.5114800255296
138.6889416668032
133.50489696458618
129.70067802289023
127.05552023926958
125.394530063604
124.5941706589822
124.58545064547499
125.35536821508644
126.94690648292062
129.45781958091553
133.03824728919483
137.8869878230737
144.24624070173977
152.39451703641788
162.63752793905255
175.2970260807281
190.69775639732984
209.1530820924763
230.94960108297406
256.3321694752314
285.4895840363393
318.5422597833075
293.37285093461276
264.5308267922119
239.0784021317433
216.96990414633126
198.08045340535372
182.21613324500854
169.12891332477724
158.53414792646674
150.1288230550713
143.60963275016073
138.6889353667612
135.10839623965705
132.64948582859205
131.1411539944582
130.46483371223175
130.5572415283484
131.41152444521705
133.077099115213
135.65841143326662
139.31265065368865
144.24624147229284
150.70981764931494
158.99139669619214
169.40737406816697
182.29136995385682
197.9809391203644
216.80253791372076
239.05544935929603
264.99530734526127
294.8183942230251
328.6474806636776
295.5352236771839
267.21027880353137
242.29319089524273
220.72769925919357
202.37647677639902
187.03272133609505
174.4365737158562
164.29345455627416
156.29331178358893
150.12885286838133
145.51148507316802
142.18465831194976
139.93386778230513
138.59378581441263
138.05267058238337
138.2547529892615
139.20106239044057
140.9491252013813
143.61176448170258
147.3549506640196
152.39452493026462
158.9914107872623
167.44491062803436
178.08374705190926
191.25463114134598
207.30851473069822
226.58455641902063
249.3929246489839
275.99674336492825
306.59463456932616
341.3048325208852
298.6533302378024
270.98142547207345
246.73654190102508
225.84658984008325
208.15694308809066
193.44442387632964
181.43510051489454
171.82369391968908
164.29344221907013
158.53415596391264
154.25812548326672
151.21270495212104
149.18974098393227
148.03191611315262
147.63651748032387
147.9573424050798
149.00523266425913
150.8476891820602
153.60773936228577
157.4619848642976
162.63752974516146
169.4073820425014
178.0837410820953
189.00885183521925
202.54308145291998
219.0502341855483
238.88049615136035
262.3515098277984
289.72875323908926
321.20626070894235
356.88909225038685
302.9510747208709
276.09547612110816
252.682287244953
232.61733688045
215.72404144031896
201.75985826029628
190.43543659834552
181.435086907886
174.43656827415222
169.12892969019785
165.22787672370075
162.48750876684082
160.70883657690732
159.74519069240307
159.50533285916143
159.95485865252752
161.11649253287024
163.069683051612
165.94958577592027
169.9453103932331
175.2970254735093
182.29137789644696
191.254643234876
202.5430717675224
216.53021094439143
233.5909373508806
254.0830010433695
278.32636191960654
306.5818195851311
339.0302375610339
375.75373353943615
308.69281715992184
282.84159404475366
260.4381493131584
241.3595391907687
225.4029037697482
212.3044760458287
201.7598438305611
193.4444177479597
187.03270979434217
182.21612714559328
178.71715441295382
176.30006021122296
174.77819934377433
174.018456681376
173.94365148322578
174.533495556315
175.82473322627263
177.9107631725904
180.94078228400448
185.11818690474914
190.69776180727587
197.9809341002483
207.30850705962547
219.05023636127163
233.59093203621535
251.31317784865905
272.57699716817206
297.69758957183916
326.9223725815894
360.40910759502304
398.2067770629222
316.1755402173953
291.53729277912504
270.3339445114293
252.40706571788053
237.52480479240683
225.40291173159872
215.72403485961746
208.1569100658617
202.3764415358867
198.08045331011354
195.00236947943353
192.92047318020823
191.6638644755006
191.11597410562925
191.21627795924448
191.96091561974242
193.40274988636526
195.65107023176586
198.87088259701602
203.28139315567466
209.15306961342972
216.80253700384665
226.58454423006378
238.8804893981098
254.08298691677447
272.5769880527055
294.7176679777938
320.8065829919896
351.067690923315
385.6251428626995
424.4850954451704
325.7184526178452
302.51618967042407
282.7065224174441
266.0895884134604
252.4071328409307
241.35955275804852
232.617362084468
225.84660453054553
220.72772309068017
216.96997074264
214.32234353533218
212.581147273202
211.59467729569693
211.26582173153147
211.5532023632446
212.4715745588792
214.0918693558843
216.5410041110979
220.00124268515407
224.70861870709334
230.94963332443967
239.0554785497814
249.39295496124026
262.3515284053244
278.3263793343104
297.69760885215186
320.8066244934407
347.931038874227
379.2602450305836
414.87428566491946
454.7288130783449
337.65242918706224
316.1156054497165
297.87991448900794
282.7064972435368
270.3339896006609
260.4381744944203
252.682322022337
246.73657243999716
242.29318331742405
239.07843484728306
236.86162622780034
235.46099531434538
234.74727560098333
234.64548234364966
235.13564470278018
236.2530752362523
238.08844590853354
240.7876621941596
244.5511713898897
249.63206988487897
256.33219505222814
264.9953197525359
275.9967658398111
289.7287627251839
306.58184324608186
326.9223899928833
351.0677110451512
379.26023943858644
411.6430436392458
448.2412363066276
488.9556640586143
352.3163989959026
332.6709818426964
316.11558258560245
302.51617494287666
291.53732368079227
282.84163541667397
276.0954614754726
270.98142207673436
267.2102866977721
264.53087717587454
262.7372170517665
261.67304876221203
261.2343877279327
261.37067198313673
262.08523558696197
263.43551434408624
265.5331496932808
268.5438078465304
272.6862406870466
278.2297984164031
285.48959102248006
294.8183964415195
306.5946536600848
321.2062641278927
339.03024741279893
360.4091203650051
385.6251575379476
414.8742830112729
448.24122727730077
485.67627421559274
527.0285706336853
370.20017212608496
352.3163702109249
337.65241282845545
325.7184524523252
316.17553566393525
308.69282055496006
302.95107475771397
298.6533438878591
295.5351732909058
293.37284844883595
291.9889378918553
291.25566893014565
291.09663423470454
291.48750463642983
292.45633339844426
294.08372233670974
296.50286834071164
299.8991490533734
304.5086427744705
310.6147820727915
318.54225887406665
328.64747516673737
341.30483557459337
356.8890821620748
375.75372298492977
398.20676917259664
424.48510217254346
454.72879924184974
488.95564023915085
527.0285548540461
568.3575613930018
