# vtk DataFile Version 2.0
Unstructured Grid Example
ASCII
DATASET UNSTRUCTURED_GRID

POINTS 961 float
0.150000006 -0.00839745998 0
0.146666661 -0.00839745998 0
0.143333331 -0.00839745998 0
0.140000001 -0.00839745998 0
0.13666667 -0.00839745998 0
0.13333334 -0.00839745998 0
0.129999995 -0.00839745998 0
0.126666665 -0.00839745998 0
0.123333335 -0.00839745998 0
0.119999997 -0.00839745998 0
0.116666667 -0.00839745998 0
0.113333337 -0.00839745998 0
0.109999999 -0.00839745998 0
0.106666669 -0.00839745998 0
0.103333332 -0.00839745998 0
0.100000001 -0.00839745998 0
0.0966666639 -0.00839745998 0
0.0933333337 -0.00839745998 0
0.0900000036 -0.00839745998 0
0.086666666 -0.00839745998 0
0.0833333358 -0.00839745998 0
0.0799999982 -0.00839745998 0
0.0766666681 -0.00839745998 0
0.0733333305 -0.00839745998 0
0.0700000003 -0.00839745998 0
0.0666666701 -0.00839745998 0
0.0633333325 -0.00839745998 0
0.0599999987 -0.00839745998 0
0.0566666685 -0.00839745998 0
0.0533333346 -0.00839745998 0
0.0500000007 -0.00839745998 0
0.148333326 -0.0112842107 0
0.144999996 -0.0112842107 0
0.141666666 -0.0112842107 0
0.138333336 -0.0112842107 0
0.135000005 -0.0112842107 0
0.13166666 -0.0112842107 0
0.12833333 -0.0112842107 0
0.125 -0.0112842107 0
0.12166667 -0.0112842107 0
0.118333332 -0.0112842107 0
0.115000002 -0.0112842107 0
0.111666664 -0.0112842107 0
0.108333334 -0.0112842107 0
0.104999997 -0.0112842107 0
0.101666667 -0.0112842107 0
0.0983333364 -0.0112842107 0
0.0949999988 -0.0112842107 0
0.0916666687 -0.0112842107 0
0.088333331 -0.0112842107 0
0.0850000009 -0.0112842107 0
0.0816666633 -0.0112842107 0
0.0783333331 -0.0112842107 0
0.075000003 -0.0112842107 0
0.0716666654 -0.0112842107 0
0.0683333352 -0.0112842107 0
0.0649999976 -0.0112842107 0
0.0616666675 -0.0112842107 0
0.0583333336 -0.0112842107 0
0.0549999997 -0.0112842107 0
0.0516666658 -0.0112842107 0
0.0483333319 -0.0112842107 0
0.146666661 -0.0141709624 0
0.143333331 -0.0141709624 0
0.140000001 -0.0141709624 0
0.13666667 -0.0141709624 0
0.13333334 -0.0141709624 0
0.129999995 -0.0141709624 0
0.126666665 -0.0141709624 0
0.123333335 -0.0141709624 0
0.119999997 -0.0141709624 0
0.116666667 -0.0141709624 0
0.113333337 -0.0141709624 0
0.109999999 -0.0141709624 0
0.106666669 -0.0141709624 0
0.103333332 -0.0141709624 0
0.100000001 -0.0141709624 0
0.0966666639 -0.0141709624 0
0.0933333337 -0.0141709624 0
0.0900000036 -0.0141709624 0
0.086666666 -0.0141709624 0
0.0833333358 -0.0141709624 0
0.0799999982 -0.0141709624 0
0.0766666681 -0.0141709624 0
0.0733333305 -0.0141709624 0
0.0700000003 -0.0141709624 0
0.0666666701 -0.0141709624 0
0.0633333325 -0.0141709624 0
0.0599999987 -0.0141709624 0
0.0566666685 -0.0141709624 0
0.0533333346 -0.0141709624 0
0.0500000007 -0.0141709624 0
0.0466666669 -0.0141709624 0
0.144999996 -0.0170577131 0
0.141666666 -0.0170577131 0
0.138333336 -0.0170577131 0
0.135000005 -0.0170577131 0
0.13166666 -0.0170577131 0
0.12833333 -0.0170577131 0
0.125 -0.0170577131 0
0.12166667 -0.0170577131 0
0.118333332 -0.0170577131 0
0.115000002 -0.0170577131 0
0.111666664 -0.0170577131 0
0.108333334 -0.0170577131 0
0.104999997 -0.0170577131 0
0.101666667 -0.0170577131 0
0.0983333364 -0.0170577131 0
0.0949999988 -0.0170577131 0
0.0916666687 -0.0170577131 0
0.088333331 -0.0170577131 0
0.0850000009 -0.0170577131 0
0.0816666633 -0.0170577131 0
0.0783333331 -0.0170577131 0
0.075000003 -0.0170577131 0
0.0716666654 -0.0170577131 0
0.0683333352 -0.0170577131 0
0.0649999976 -0.0170577131 0
0.0616666675 -0.0170577131 0
0.0583333336 -0.0170577131 0
0.0549999997 -0.0170577131 0
0.0516666658 -0.0170577131 0
0.0483333319 -0.0170577131 0
0.0450000018 -0.0170577131 0
0.143333331 -0.0199444648 0
0.140000001 -0.0199444648 0
0.13666667 -0.0199444648 0
0.13333334 -0.0199444648 0
0.129999995 -0.0199444648 0
0.126666665 -0.0199444648 0
0.123333335 -0.0199444648 0
0.119999997 -0.0199444648 0
0.116666667 -0.0199444648 0
0.113333337 -0.0199444648 0
0.109999999 -0.0199444648 0
0.106666669 -0.0199444648 0
0.103333332 -0.0199444648 0
0.100000001 -0.0199444648 0
0.0966666639 -0.0199444648 0
0.0933333337 -0.0199444648 0
0.0900000036 -0.0199444648 0
0.086666666 -0.0199444648 0
0.0833333358 -0.0199444648 0
0.0799999982 -0.0199444648 0
0.0766666681 -0.0199444648 0
0.0733333305 -0.0199444648 0
0.0700000003 -0.0199444648 0
0.0666666701 -0.0199444648 0
0.0633333325 -0.0199444648 0
0.0599999987 -0.0199444648 0
0.0566666685 -0.0199444648 0
0.0533333346 -0.0199444648 0
0.0500000007 -0.0199444648 0
0.0466666669 -0.0199444648 0
0.043333333 -0.0199444648 0
0.141666666 -0.0228312165 0
0.138333336 -0.0228312165 0
0.135000005 -0.0228312165 0
0.13166666 -0.0228312165 0
0.12833333 -0.0228312165 0
0.125 -0.0228312165 0
0.12166667 -0.0228312165 0
0.118333332 -0.0228312165 0
0.115000002 -0.0228312165 0
0.111666664 -0.0228312165 0
0.108333334 -0.0228312165 0
0.104999997 -0.0228312165 0
0.101666667 -0.0228312165 0
0.0983333364 -0.0228312165 0
0.0949999988 -0.0228312165 0
0.0916666687 -0.0228312165 0
0.088333331 -0.0228312165 0
0.0850000009 -0.0228312165 0
0.0816666633 -0.0228312165 0
0.0783333331 -0.0228312165 0
0.075000003 -0.0228312165 0
0.0716666654 -0.0228312165 0
0.0683333352 -0.0228312165 0
0.0649999976 -0.0228312165 0
0.0616666675 -0.0228312165 0
0.0583333336 -0.0228312165 0
0.0549999997 -0.0228312165 0
0.0516666658 -0.0228312165 0
0.0483333319 -0.0228312165 0
0.0450000018 -0.0228312165 0
0.0416666679 -0.0228312165 0
0.140000001 -0.0257179681 0
0.13666667 -0.0257179681 0
0.13333334 -0.0257179681 0
0.129999995 -0.0257179681 0
0.126666665 -0.0257179681 0
0.123333335 -0.0257179681 0
0.119999997 -0.0257179681 0
0.116666667 -0.0257179681 0
0.113333337 -0.0257179681 0
0.109999999 -0.0257179681 0
0.106666669 -0.0257179681 0
0.103333332 -0.0257179681 0
0.100000001 -0.0257179681 0
0.0966666639 -0.0257179681 0
0.0933333337 -0.0257179681 0
0.0900000036 -0.0257179681 0
0.086666666 -0.0257179681 0
0.0833333358 -0.0257179681 0
0.0799999982 -0.0257179681 0
0.0766666681 -0.0257179681 0
0.0733333305 -0.0257179681 0
0.0700000003 -0.0257179681 0
0.0666666701 -0.0257179681 0
0.0633333325 -0.0257179681 0
0.0599999987 -0.0257179681 0
0.0566666685 -0.0257179681 0
0.0533333346 -0.0257179681 0
0.0500000007 -0.0257179681 0
0.0466666669 -0.0257179681 0
0.043333333 -0.0257179681 0
0.0399999991 -0.0257179681 0
0.138333336 -0.0286047198 0
0.135000005 -0.0286047198 0
0.13166666 -0.0286047198 0
0.12833333 -0.0286047198 0
0.125 -0.0286047198 0
0.12166667 -0.0286047198 0
0.118333332 -0.0286047198 0
0.115000002 -0.0286047198 0
0.111666664 -0.0286047198 0
0.108333334 -0.0286047198 0
0.104999997 -0.0286047198 0
0.101666667 -0.0286047198 0
0.0983333364 -0.0286047198 0
0.0949999988 -0.0286047198 0
0.0916666687 -0.0286047198 0
0.088333331 -0.0286047198 0
0.0850000009 -0.0286047198 0
0.0816666633 -0.0286047198 0
0.0783333331 -0.0286047198 0
0.075000003 -0.0286047198 0
0.0716666654 -0.0286047198 0
0.0683333352 -0.0286047198 0
0.0649999976 -0.0286047198 0
0.0616666675 -0.0286047198 0
0.0583333336 -0.0286047198 0
0.0549999997 -0.0286047198 0
0.0516666658 -0.0286047198 0
0.0483333319 -0.0286047198 0
0.0450000018 -0.0286047198 0
0.0416666679 -0.0286047198 0
0.038333334 -0.0286047198 0
0.13666667 -0.0314914696 0
0.13333334 -0.0314914696 0
0.129999995 -0.0314914696 0
0.126666665 -0.0314914696 0
0.123333335 -0.0314914696 0
0.119999997 -0.0314914696 0
0.116666667 -0.0314914696 0
0.113333337 -0.0314914696 0
0.109999999 -0.0314914696 0
0.106666669 -0.0314914696 0
0.103333332 -0.0314914696 0
0.100000001 -0.0314914696 0
0.0966666639 -0.0314914696 0
0.0933333337 -0.0314914696 0
0.0900000036 -0.0314914696 0
0.086666666 -0.0314914696 0
0.0833333358 -0.0314914696 0
0.0799999982 -0.0314914696 0
0.0766666681 -0.0314914696 0
0.0733333305 -0.0314914696 0
0.0700000003 -0.0314914696 0
0.0666666701 -0.0314914696 0
0.0633333325 -0.0314914696 0
0.0599999987 -0.0314914696 0
0.0566666685 -0.0314914696 0
0.0533333346 -0.0314914696 0
0.0500000007 -0.0314914696 0
0.0466666669 -0.0314914696 0
0.043333333 -0.0314914696 0
0.0399999991 -0.0314914696 0
0.0366666652 -0.0314914696 0
0.135000005 -0.0343782231 0
0.13166666 -0.0343782231 0
0.12833333 -0.0343782231 0
0.125 -0.0343782231 0
0.12166667 -0.0343782231 0
0.118333332 -0.0343782231 0
0.115000002 -0.0343782231 0
0.111666664 -0.0343782231 0
0.108333334 -0.0343782231 0
0.104999997 -0.0343782231 0
0.101666667 -0.0343782231 0
0.0983333364 -0.0343782231 0
0.0949999988 -0.0343782231 0
0.0916666687 -0.0343782231 0
0.088333331 -0.0343782231 0
0.0850000009 -0.0343782231 0
0.0816666633 -0.0343782231 0
0.0783333331 -0.0343782231 0
0.075000003 -0.0343782231 0
0.0716666654 -0.0343782231 0
0.0683333352 -0.0343782231 0
0.0649999976 -0.0343782231 0
0.0616666675 -0.0343782231 0
0.0583333336 -0.0343782231 0
0.0549999997 -0.0343782231 0
0.0516666658 -0.0343782231 0
0.0483333319 -0.0343782231 0
0.0450000018 -0.0343782231 0
0.0416666679 -0.0343782231 0
0.038333334 -0.0343782231 0
0.0350000001 -0.0343782231 0
0.13333334 -0.0372649729 0
0.129999995 -0.0372649729 0
0.126666665 -0.0372649729 0
0.123333335 -0.0372649729 0
0.119999997 -0.0372649729 0
0.116666667 -0.0372649729 0
0.113333337 -0.0372649729 0
0.109999999 -0.0372649729 0
0.106666669 -0.0372649729 0
0.103333332 -0.0372649729 0
0.100000001 -0.0372649729 0
0.0966666639 -0.0372649729 0
0.0933333337 -0.0372649729 0
0.0900000036 -0.0372649729 0
0.086666666 -0.0372649729 0
0.0833333358 -0.0372649729 0
0.0799999982 -0.0372649729 0
0.0766666681 -0.0372649729 0
0.0733333305 -0.0372649729 0
0.0700000003 -0.0372649729 0
0.0666666701 -0.0372649729 0
0.0633333325 -0.0372649729 0
0.0599999987 -0.0372649729 0
0.0566666685 -0.0372649729 0
0.0533333346 -0.0372649729 0
0.0500000007 -0.0372649729 0
0.0466666669 -0.0372649729 0
0.043333333 -0.0372649729 0
0.0399999991 -0.0372649729 0
0.0366666652 -0.0372649729 0
0.0333333351 -0.0372649729 0
0.13166666 -0.0401517227 0
0.12833333 -0.0401517227 0
0.125 -0.0401517227 0
0.12166667 -0.0401517227 0
0.118333332 -0.0401517227 0
0.115000002 -0.0401517227 0
0.111666664 -0.0401517227 0
[...]
POINT_DATA 961
SCALARS Temp float 1
LOOKUP_TABLE default
437.14984807745066
389.56980975094604
348.8025247837515
315.62210752582905
289.63571150230865
270.03855354503634
255.8039093798332
245.84171842722523
239.12036004108614
234.7454864297258
231.9959344173823
230.3256587002325
229.34388184586987
228.78495757623523
228.47672648741602
228.31273095415338
228.23061885430155
228.1972089732322
228.19985481124007
228.24367506234077
228.3547069659579
228.5895103537707
229.05191154312718
229.91685958683803
231.45930271075332
234.08289914335745
238.33967987200083
244.9299231280172
254.67453520400528
268.4657261527247
287.4319169258877
389.56982401335256
343.24877933779317
304.9121765183153
274.26659704109954
250.66661821541112
233.15717257308583
220.63951301814478
212.0129841164284
206.27889702623386
202.59978528645522
200.31908411280824
198.95170085106037
198.15800444274754
197.7116528785105
197.46871551004466
197.34200156555178
197.28206123944025
197.26487548392842
197.28576968848083
197.3593365894523
197.5256558892183
197.863495009378
198.51095911819414
199.6926981732041
201.7501416538977
205.1676129099351
210.5838091137827
218.77778831599048
230.62265553876932
247.01642717051953
268.465745891941
348.802478241577
304.9121545285184
269.05759112913495
240.77373218799383
219.24810001942805
203.44777253237777
192.2610280993728
184.618675957532
179.57812730432445
176.36615149374316
174.38694213253802
173.20648442376196
172.52441402791735
172.1425257590436
171.93596971148207
171.8300878570755
171.78387055170916
171.77990617263234
171.8205121365968
171.93007635381198
172.16408303503144
172.6254718575716
173.48831324165857
175.02684248827177
177.64478912216728
181.89612387674714
188.48568789721043
198.2383533390985
212.0276039306373
230.62264626023185
254.67454587220993
315.62204870556167
274.26656466918706
240.77373214564406
214.557000169383
194.73424904262075
180.26039585202128
170.0545675603993
163.10334650676302
158.52806082307032
155.61610713466152
153.82265629410603
152.75291123899322
152.1345522723065
151.78832091548816
151.6016398029965
151.5077873696097
151.47140555453993
151.48030679827025
151.54349353940782
151.6956111415258
152.00839523118876
152.60953305746207
153.70822657381532
155.6243978123857
158.81506567680367
163.88780775498415
171.58952234877847
182.75940286280638
198.23836945355214
218.77780151175133
244.929914625032
289.6356561456268
250.66658758331738
219.2480826513269
194.73432148760847
176.2360357901018
162.74094243578867
153.22430557553346
146.7366966583062
142.46009985083552
139.73283184758264
138.04924510346567
137.04254509893235
136.4592550002698
136.13221434826548
135.95644879564836
135.87025634888002
135.84231456206265
135.8649745950657
135.95385000087876
136.15404377590679
136.5535118588765
137.30360833781782
138.64535242313656
140.93736134682194
144.67792076468714
150.51073409654478
159.20320306658328
171.5895153002323
188.48568300546302
210.58380763153954
238.33968557652676
270.03849712208194
233.1572113642884
203.44782356590912
180.26036333489398
162.74092958484306
149.9342780922494
140.88029425901237
134.69039731197722
130.59763608245274
127.97952574212766
126.35842903313039
125.38632658594915
124.82173962033015
124.50490090915117
124.33545417716864
124.25497411014742
124.23528131591053
124.27290568364722
124.38993334995857
124.64162324531239
125.13111730647522
126.030834524728
127.60843029245362
130.25249276959406
134.48993636897436
140.98507530388866
150.51073071540569
163.88780915210356
181.89613078553225
205.16759129244295
234.08289379984552
255.80392000774393
220.63953787486795
192.26107678555343
170.05452920955886
153.22428986945295
140.88028995038354
132.1236484602786
126.11712940914843
122.13306209878846
119.57702513692415
117.9901767897802
117.03643431792709
116.48159774746078
116.17027709325673
116.0049338539936
115.92942428853864
115.91820822308614
115.97170305055761
116.11809569911624
116.42194502705243
116.9996686081958
118.04108363124438
119.83438021846706
122.78922439543878
127.45001272266494
134.48993227025406
144.67791228862413
158.81505348099637
177.64478809205107
201.7501397954872
231.45931127539853
245.84173458481285
212.01301215556856
184.61861739703488
163.10331190226324
146.7366968253821
134.69040960157562
126.1171262959523
120.21913513398897
116.29691421168775
113.7749123130029
112.20620068821141
111.261935565418
110.71215839852135
110.40403157602009
110.24179327603338
110.1710149824464
110.16845537272675
110.23806621916025
110.41348791405659
110.76726211006502
111.42661543270214
112.59466720210523
114.57410485625074
117.78786606855789
122.7892220124426
130.25248927731428
140.93736354771886
155.62439923027335
175.02682759794348
199.69267872123353
229.91684935804795
239.1203683059779
206.27893139607278
179.5780827443975
158.52804295096217
142.46010269085937
130.5976250344061
122.13305908790663
116.2969231709182
112.40865352844018
109.90468256633982
108.3452969582958
107.40584341397395
106.85877057972529
106.55273694727494
106.39316665940002
106.32699869393856
106.33298611698069
106.41815736206802
106.62074431249715
107.019689893174
107.75039449169526
109.02534959582664
111.15651884481954
114.57410714753047
119.83438120846198
127.60842985165294
138.64535102343822
153.70822222677972
173.48831686409227
198.5109664140847
229.0519305256462
234.7455253564168
202.59972087307355
176.36612760664053
155.61610299415784
139.7328446130443
127.9795246080308
119.5770314699427
113.7749099606921
109.90468072451442
107.40998408484825
105.85530543029175
104.91832171030993
104.3728291541605
104.06838691792564
103.9112647532072
103.84951586955815
103.86357214830701
103.96299764051261
104.18964860525574
104.62725209352193
105.41693392695198
106.77722313722342
109.02534788418163
112.59466688573892
118.0410832260221
126.03083367939433
137.30360765865623
152.60951499940094
172.62545684977243
197.8634780475364
228.58950198682066
231.99599520739244
200.31903323078367
174.38692820786534
153.8226624286272
138.04923353615519
126.35843022488078
117.99018511419833
112.20620115895512
108.34529925127214
105.85530519996702
104.30302688651278
103.36741101051821
102.82300715155007
102.51993752221993
102.36510282869385
102.3074524028883
102.32876880590688
102.44058438813163
102.68743057415573
103.15635655224679
103.99218070078264
105.41693605249817
107.7503950396004
111.4266138851938
116.99966616737187
125.13111604686566
136.5535089028132
152.00839329472703
172.16408841673444
197.52566437302775
228.35469377329346
230.32559765662657
198.95166736429957
173.20648177648218
152.75292385479167
137.04253511071332
125.3863313028939
117.03642909804205
111.26193663960547
107.40583933380579
104.9183216215945
103.36741272210783
102.43273744834094
101.88926733838889
101.58749567859525
101.43479777064474
101.38081864961214
101.40837059433142
101.53042055307762
101.79334286453033
102.2863254464267
103.15635820431413
104.62725325897972
107.0196891064395
110.76726557359133
116.42194969521721
124.64163076889051
136.1540385425706
151.69560491803438
171.93007776374986
197.35933863793406
228.24368904936588
229.34385198106872
198.15799728082106
172.52443097752692
152.13453759721278
136.45925704459884
124.82175315343683
116.48159656735919
110.71216303044062
106.85876873007669
104.37283061250761
102.82300618966339
101.88926675412026
101.34680998297661
101.04637837628658
100.89569529882972
100.84492442560342
100.87762016205328
101.0077326862555
101.28282046816672
101.79334145775536
102.68743013292634
104.18965025480543
106.62074135032438
110.41348682459245
116.11809392250909
124.38993079713988
135.95384821032854
151.54349191164314
171.82051904316336
197.2857468573051
228.19985875175206
228.78493327324296
197.71165070904496
172.1425488966932
151.78830796137674
136.13221856534872
124.50489210201911
116.17027781350006
110.4040278163256
106.5527357255423
104.06838909308298
102.51993638241709
101.58749569942567
101.04637822923694
100.7474863292203
100.59878751219676
100.55081861673209
100.5876454167752
100.72385832541809
101.00773246621235
101.53042094098453
102.44058427343128
103.96299867434432
106.41815708930929
110.23806907822693
115.97170783028834
124.27290200440638
135.8649700404088
151.48030159460993
171.77990765280322
197.2648792558794
228.19720809583507
228.47672460724385
197.4687341860076
171.9359551593118
151.6016404173571
135.95646562464506
124.33545236058025
116.00494106337307
110.24179249953889
106.39316660208111
103.91126428878542
102.36510284163805
101.43479818973856
100.89569514083313
100.59878770245714
100.45221881010046
100.40679475258507
100.44693595172402
100.58764527033713
100.87761979333514
101.4083701199222
102.32876885090486
103.86357143356742
106.33298329535862
110.16845438512873
115.91820643222223
124.23528017856304
135.84231366921958
151.47140519232093
171.783853978514
197.28205734747135
228.23061039617937
228.31273134476413
197.3420238055275
171.8300751691019
151.50779103241962
135.87024355977206
124.254974065593
115.9294178920688
110.17101545524113
106.32700016717703
103.84951545628456
102.30745264128416
101.38081763609549
100.84492449715557
100.55081834928612
100.40679475977412
100.36388667424708
100.40679483539799
100.5508184595156
100.84492486552556
101.3808180895014
102.30745213625814
103.84951699124176
106.32699868363576
110.17101828921513
115.92942152907642
124.2549708775816
135.8702533219921
151.50778279516652
171.83009234286772
197.34199157921796
228.31273282782644
228.230641031153
197.28203799968227
171.78387763697626
151.47142567235608
135.84231105106065
124.23529061265312
115.91820687092532
110.16845832645393
106.33298331515105
103.86357334306777
102.32877025687793
101.40837013475786
100.87762072714511
100.58764536495026
100.44693602977213
100.40679489226547
100.45221893079515
100.59878737330179
100.89569530570526
101.43479749960176
102.36510179844484
103.91126434083994
106.39316401735009
110.24179207980181
116.0049333857716
124.3354538482625
135.9564492870263
151.60162055155072
171.93596677202683
197.46869870390506
228.47671856477777
228.19724068369877
197.26485802103838
171.7799175216075
151.48028772502155
135.86497372188177
124.27289625707235
115.97170334818198
110.23807110419003
106.41815459819102
103.96299944131785
102.44058349857383
101.53042031340114
101.00773225496323
100.7238581700927
100.5876455485665
100.55081864957924
100.59878755754121
100.74748653026639
101.04637847200402
101.58749536597392
102.51993727002599
104.06838802518274
106.55273740591771
110.40402994299747
116.17027510205145
124.50489837393432
136.13221096054636
151.7883189047508
172.14251729446588
197.71164435295563
228.78495880767144
228.19982184479184
197.2857593934254
171.82052976672244
151.54347621050445
135.95385304003958
124.38992465611874
116.11809500976605
110.41348364273601
106.62074224250749
104.18965114737726
102.68742927042263
101.79334247127045
101.2828202321355
101.00773252339062
100.87762013743409
100.8449244146634
100.8956951590705
101.04637854785115
101.34680974654478
101.88926648815288
102.8230068321877
104.37283001698378
106.85877013530121
110.71216036929563
116.48160146893468
124.82174650372426
136.45924919460595
152.13455551367613
172.52441336535756
198.1580046674764
229.343892549346
228.24366773314864
197.35934967375837
171.93005846847458
151.6956088096548
136.15403003632733
124.6416241656439
116.42195247884165
110.76726181688787
107.01969029358268
104.62725204556621
103.15635721227495
102.28632508734228
101.79334257888743
101.53042084966819
101.4083706197014
101.38081865355443
101.43479786809996
101.58749578977609
101.88926712243594
102.43273793753563
103.36741198909138
104.91832259177471
107.40584051234895
111.26193453329206
117.03643306061689
125.38632514397081
137.04254281116664
152.7528983520862
173.20647721246667
198.95169293307822
230.325659024249
228.3547033574214
197.52567424403765
172.1640667986251
152.00839871958902
136.55350022421194
125.1311175163451
116.99966151760488
111.42661526743287
107.75039645435825
105.41693472885255
103.99218237422534
103.15635622116066
102.6874303186874
102.44058430991933
102.32876870897121
102.3074523908275
102.3651029562346
102.51993736622317
102.82300701345932
103.36741136304546
104.30302645914487
105.85530601057742
108.34529737107384
112.20620438260222
117.99018024613913
126.3584246650527
138.04924775147637
153.8226509747071
174.3869407187794
200.3190837626334
231.9959308401631
228.58950851812077
197.86345104165127
172.6254609107892
152.6095035452769
137.3035987723429
126.0308376035528
118.04107800923973
112.59466874391585
109.02534615483363
106.7772216980675
105.41693337858067
104.62725161709746
104.1896491372437
103.96299771822349
103.86357213834866
103.84951590962638
103.91126478320665
104.06838679108931
104.37282942531999
104.91832125667155
105.8553060486763
107.4099847710862
109.90467936713104
113.7749127549755
119.57702745004967
127.97953128281073
139.73282729106216
155.6161044543326
176.3661592410918
202.5997963809613
234.74550250820033
229.05195901278884
198.5109585694546
173.4883395993651
153.70822421338204
138.64536389132013
127.6084322249723
119.83439044763983
114.5741153182299
111.1565221691231
109.0253568990012
107.75039848064353
107.01969373265892
106.62074825572975
106.41816115932322
106.33299019691519
106.32700279398748
106.39317044683956
106.55274077235569
106.85877451581685
107.40584666969914
108.34530069627651
109.90468416336385
112.40865783729456
116.29692110596382
122.13305564660679
130.5976348059589
142.46009242837238
158.52805120754337
179.57812295860913
206.2788668690576
239.12034156708003
229.91684303407953
199.69270514983376
175.02683073096705
155.62440247521158
140.93738096894032
130.2524927101483
122.789233573053
117.78787157609027
114.57411003056039
112.59467309175889
111.42662108755079
110.76726919706344
110.41349427691878
110.23807232820833
110.16846145246717
110.1710209880843
110.241799217264
110.40403766662445
110.71216397624333
111.26194168114161
112.20620643220813
113.7749164467095
116.29692048150484
120.21913596250302
126.11713372300862
134.69039806043642
146.73669808590984
163.10333535866727
184.6186728050878
212.01297719229055
245.84171838348522
231.45929684612466
201.75015952146626
177.64478422548507
158.8150648988447
144.67791146923926
134.48994157397442
127.45002143958727
122.78922699570205
119.83438875606078
118.04108785418973
116.99967267985113
116.4219492631116
116.11809970582435
115.97170765535557
115.9182128478543
115.92942855661279
116.0049383422618
116.1702815934224
116.48160186429186
117.03643887825467
117.99018024235816
119.5770305931941
122.13306367692981
126.11713089265335
132.12365998326226
140.88028747190216
153.22430228338789
170.05456692498333
192.26102378150946
220.63951181960496
255.8039219590346
234.08290205667092
205.16757599913475
181.8961186604436
163.88781690388728
150.5107231768206
140.9850795310255
134.4899338468434
130.2524905463265
127.60842937840209
126.03083353262075
125.13111857566928
124.64162371963651
124.38993346054049
124.27290573486778
124.23528127354004
124.25497417686408
124.33545434890382
124.50490089099893
124.82174017249795
125.38632689971854
126.35842879968465
127.97952739355097
130.5976346862325
134.69040134326661
140.88028536084505
149.93427963548908
162.7409489023306
180.26040760208775
203.44778798744733
233.15718424352943
270.0384977117031
238.3396826768879
210.58378137497908
188.4856771217842
171.58949633064583
159.20319771772424
150.5107289731301
144.67790854895068
140.93735716834493
138.6453431436326
137.3035989683315
136.5535027283141
136.15403431140757
135.953841485233
135.86496613702778
135.8423056510299
135.87024784350987
135.95644021382168
136.13220553537857
136.45924661822764
137.04253627734116
138.04923778864764
139.73282221790717
142.46009097344364
146.73669524418713
153.22429389290372
162.74094215236798
176.23605450387615
194.73426077345667
219.2480385767862
250.66655877770873
289.6356506075446
244.9299279212444
218.77781700721454
198.23840641441873
182.75942082394968
171.5895527071313
163.88782918992743
158.81508687625475
155.62442005771402
153.7082484330066
152.60955769508544
152.0084188978632
151.69563424140523
151.54351648047847
151.48032957658862
151.47142856942438
151.50781038853447
151.6016627174819
151.78834427694088
152.1345751068705
152.75293369023683
153.82267970084976
155.61612778490527
158.52808427045275
163.10335871389063
170.05458530000757
180.2604239691752
194.734291931497
214.55696616583813
240.77369330615556
274.2665344142774
315.6220521150892
254.67455713219147
230.62267971322655
212.02762035831483
198.23838302028096
188.4857165029912
181.896143475881
177.6448173658186
175.02686467702043
173.48833512577028
172.6254938493501
172.16410443737013
171.9300988950233
171.8205347575426
171.77992825824478
171.7838931565063
171.83011025111531
171.93599183045734
172.1425480955139
172.52443600607754
173.206507101973
174.38696258860477
176.36617206857036
179.57815205797075
184.6186904077626
192.26104858536516
203.4478036984743
219.24805613892167
240.7736926250829
269.05755052624426
304.9121193527157
348.8024735296749
268.46574887475066
247.01645061359247
230.62265812289795
218.7778040474925
210.58381551807778
205.16761926801667
201.75014924367284
199.69270550771884
198.51096983818078
197.86350465158165
197.5256647543859
197.35934531036483
197.28577824599822
197.2648844697486
197.2820701553349
197.34201046203492
197.46872485767935
197.71166162765627
198.15801317207394
198.951710366867
200.31909154416002
202.59979484395822
206.27889758558504
212.01298890873417
220.63952529046642
233.15719564398884
250.6665700205612
274.26653781789844
304.9121117484145
343.24871845451656
389.56972702033306
287.43193325961823
268.46572041518533
254.67454246565208
244.92992941345244
238.3396764689955
234.0829048960032
231.459302018344
229.91685962670562
229.05191162601244
228.5895089142115
228.35470708355504
228.24367512948632
228.19985476665934
228.19720928597022
228.23061892603494
228.3127309791033
228.47672615444782
228.78495760226397
229.34388220984886
230.32565723038917
231.9959332001037
234.7454889477642
239.120354221114
245.84171689272304
255.80391495612906
270.03849166588117
289.63565287229983
315.62204106642673
348.8024491868732
389.5697093505473
437.1494405911597
