# vtk DataFile Version 2.0
Unstructured Grid Example
ASCII
DATASET UNSTRUCTURED_GRID

POINTS 961 float
0.150000006 -0.00839745998 0
0.146666661 -0.00839745998 0
0.143333331 -0.00839745998 0
0.140000001 -0.00839745998 0
0.13666667 -0.00839745998 0
0.13333334 -0.00839745998 0
0.129999995 -0.00839745998 0
0.126666665 -0.00839745998 0
0.123333335 -0.00839745998 0
0.119999997 -0.00839745998 0
0.116666667 -0.00839745998 0
0.113333337 -0.00839745998 0
0.109999999 -0.00839745998 0
0.106666669 -0.00839745998 0
0.103333332 -0.00839745998 0
0.100000001 -0.00839745998 0
0.0966666639 -0.00839745998 0
0.0933333337 -0.00839745998 0
0.0900000036 -0.00839745998 0
0.086666666 -0.00839745998 0
0.0833333358 -0.00839745998 0
0.0799999982 -0.00839745998 0
0.0766666681 -0.00839745998 0
0.0733333305 -0.00839745998 0
0.0700000003 -0.00839745998 0
0.0666666701 -0.00839745998 0
0.0633333325 -0.00839745998 0
0.0599999987 -0.00839745998 0
0.0566666685 -0.00839745998 0
0.0533333346 -0.00839745998 0
0.0500000007 -0.00839745998 0
0.148333326 -0.0112842107 0
0.144999996 -0.0112842107 0
0.141666666 -0.0112842107 0
0.138333336 -0.0112842107 0
0.135000005 -0.0112842107 0
0.13166666 -0.0112842107 0
0.12833333 -0.0112842107 0
0.125 -0.0112842107 0
0.12166667 -0.0112842107 0
0.118333332 -0.0112842107 0
0.115000002 -0.0112842107 0
0.111666664 -0.0112842107 0
0.108333334 -0.0112842107 0
0.104999997 -0.0112842107 0
0.101666667 -0.0112842107 0
0.0983333364 -0.0112842107 0
0.0949999988 -0.0112842107 0
0.0916666687 -0.0112842107 0
0.088333331 -0.0112842107 0
0.0850000009 -0.0112842107 0
0.0816666633 -0.0112842107 0
0.0783333331 -0.0112842107 0
0.075000003 -0.0112842107 0
0.0716666654 -0.0112842107 0
0.0683333352 -0.0112842107 0
0.0649999976 -0.0112842107 0
0.0616666675 -0.0112842107 0
0.0583333336 -0.0112842107 0
0.0549999997 -0.0112842107 0
0.0516666658 -0.0112842107 0
0.0483333319 -0.0112842107 0
0.146666661 -0.0141709624 0
0.143333331 -0.0141709624 0
0.140000001 -0.0141709624 0
0.13666667 -0.0141709624 0
0.13333334 -0.0141709624 0
0.129999995 -0.0141709624 0
0.126666665 -0.0141709624 0
0.123333335 -0.0141709624 0
0.119999997 -0.0141709624 0
0.116666667 -0.0141709624 0
0.113333337 -0.0141709624 0
0.109999999 -0.0141709624 0
0.106666669 -0.0141709624 0
0.103333332 -0.0141709624 0
0.100000001 -0.0141709624 0
0.0966666639 -0.0141709624 0
0.0933333337 -0.0141709624 0
0.0900000036 -0.0141709624 0
0.086666666 -0.0141709624 0
0.0833333358 -0.0141709624 0
0.0799999982 -0.0141709624 0
0.0766666681 -0.0141709624 0
0.0733333305 -0.0141709624 0
0.0700000003 -0.0141709624 0
0.0666666701 -0.0141709624 0
0.0633333325 -0.0141709624 0
0.0599999987 -0.0141709624 0
0.0566666685 -0.0141709624 0
0.0533333346 -0.0141709624 0
0.0500000007 -0.0141709624 0
0.0466666669 -0.0141709624 0
0.144999996 -0.0170577131 0
0.141666666 -0.0170577131 0
0.138333336 -0.0170577131 0
0.135000005 -0.0170577131 0
0.13166666 -0.0170577131 0
0.12833333 -0.0170577131 0
0.125 -0.0170577131 0
0.12166667 -0.0170577131 0
0.118333332 -0.0170577131 0
0.115000002 -0.0170577131 0
0.111666664 -0.0170577131 0
0.108333334 -0.0170577131 0
0.104999997 -0.0170577131 0
0.101666667 -0.0170577131 0
0.0983333364 -0.0170577131 0
0.0949999988 -0.0170577131 0
0.0916666687 -0.0170577131 0
0.088333331 -0.0170577131 0
0.0850000009 -0.0170577131 0
0.0816666633 -0.0170577131 0
0.0783333331 -0.0170577131 0
0.075000003 -0.0170577131 0
0.0716666654 -0.0170577131 0
0.0683333352 -0.0170577131 0
0.0649999976 -0.0170577131 0
0.0616666675 -0.0170577131 0
0.0583333336 -0.0170577131 0
0.0549999997 -0.0170577131 0
0.0516666658 -0.0170577131 0
0.0483333319 -0.0170577131 0
0.0450000018 -0.0170577131 0
0.143333331 -0.0199444648 0
0.140000001 -0.0199444648 0
0.13666667 -0.0199444648 0
0.13333334 -0.0199444648 0
0.129999995 -0.0199444648 0
0.126666665 -0.0199444648 0
0.123333335 -0.0199444648 0
0.119999997 -0.0199444648 0
0.116666667 -0.0199444648 0
0.113333337 -0.0199444648 0
0.109999999 -0.0199444648 0
0.106666669 -0.0199444648 0
0.103333332 -0.0199444648 0
0.100000001 -0.0199444648 0
0.0966666639 -0.0199444648 0
0.0933333337 -0.0199444648 0
0.0900000036 -0.0199444648 0
0.086666666 -0.0199444648 0
0.0833333358 -0.0199444648 0
0.0799999982 -0.0199444648 0
0.0766666681 -0.0199444648 0
0.0733333305 -0.0199444648 0
0.0700000003 -0.0199444648 0
0.0666666701 -0.0199444648 0
0.0633333325 -0.0199444648 0
0.0599999987 -0.0199444648 0
0.0566666685 -0.0199444648 0
0.0533333346 -0.0199444648 0
0.0500000007 -0.0199444648 0
0.0466666669 -0.0199444648 0
0.043333333 -0.0199444648 0
0.141666666 -0.0228312165 0
0.138333336 -0.0228312165 0
0.135000005 -0.0228312165 0
0.13166666 -0.0228312165 0
0.12833333 -0.0228312165 0
0.125 -0.0228312165 0
0.12166667 -0.0228312165 0
0.118333332 -0.0228312165 0
0.115000002 -0.0228312165 0
0.111666664 -0.0228312165 0
0.108333334 -0.0228312165 0
0.104999997 -0.0228312165 0
0.101666667 -0.0228312165 0
0.0983333364 -0.0228312165 0
0.0949999988 -0.0228312165 0
0.0916666687 -0.0228312165 0
0.088333331 -0.0228312165 0
0.0850000009 -0.0228312165 0
0.0816666633 -0.0228312165 0
0.0783333331 -0.0228312165 0
0.075000003 -0.0228312165 0
0.0716666654 -0.0228312165 0
0.0683333352 -0.0228312165 0
0.0649999976 -0.0228312165 0
0.0616666675 -0.0228312165 0
0.0583333336 -0.0228312165 0
0.0549999997 -0.0228312165 0
0.0516666658 -0.0228312165 0
0.0483333319 -0.0228312165 0
0.0450000018 -0.0228312165 0
0.0416666679 -0.0228312165 0
0.140000001 -0.0257179681 0
0.13666667 -0.0257179681 0
0.13333334 -0.0257179681 0
0.129999995 -0.0257179681 0
0.126666665 -0.0257179681 0
0.123333335 -0.0257179681 0
0.119999997 -0.0257179681 0
0.116666667 -0.0257179681 0
0.113333337 -0.0257179681 0
0.109999999 -0.0257179681 0
0.106666669 -0.0257179681 0
0.103333332 -0.0257179681 0
0.100000001 -0.0257179681 0
0.0966666639 -0.0257179681 0
0.0933333337 -0.0257179681 0
0.0900000036 -0.0257179681 0
0.086666666 -0.0257179681 0
0.0833333358 -0.0257179681 0
0.0799999982 -0.0257179681 0
0.0766666681 -0.0257179681 0
0.0733333305 -0.0257179681 0
0.0700000003 -0.0257179681 0
0.0666666701 -0.0257179681 0
0.0633333325 -0.0257179681 0
0.0599999987 -0.0257179681 0
0.0566666685 -0.0257179681 0
0.0533333346 -0.0257179681 0
0.0500000007 -0.0257179681 0
0.0466666669 -0.0257179681 0
0.043333333 -0.0257179681 0
0.0399999991 -0.0257179681 0
0.138333336 -0.0286047198 0
0.135000005 -0.0286047198 0
0.13166666 -0.0286047198 0
0.12833333 -0.0286047198 0
0.125 -0.0286047198 0
0.12166667 -0.0286047198 0
0.118333332 -0.0286047198 0
0.115000002 -0.0286047198 0
0.111666664 -0.0286047198 0
0.108333334 -0.0286047198 0
0.104999997 -0.0286047198 0
0.101666667 -0.0286047198 0
0.0983333364 -0.0286047198 0
0.0949999988 -0.0286047198 0
0.0916666687 -0.0286047198 0
0.088333331 -0.0286047198 0
0.0850000009 -0.0286047198 0
0.0816666633 -0.0286047198 0
0.0783333331 -0.0286047198 0
0.075000003 -0.0286047198 0
0.0716666654 -0.0286047198 0
0.0683333352 -0.0286047198 0
0.0649999976 -0.0286047198 0
0.0616666675 -0.0286047198 0
0.0583333336 -0.0286047198 0
0.0549999997 -0.0286047198 0
0.0516666658 -0.0286047198 0
0.0483333319 -0.0286047198 0
0.0450000018 -0.0286047198 0
0.0416666679 -0.0286047198 0
0.038333334 -0.0286047198 0
0.13666667 -0.0314914696 0
0.13333334 -0.0314914696 0
0.129999995 -0.0314914696 0
0.126666665 -0.0314914696 0
0.123333335 -0.0314914696 0
0.119999997 -0.0314914696 0
0.116666667 -0.0314914696 0
0.113333337 -0.0314914696 0
0.109999999 -0.0314914696 0
0.106666669 -0.0314914696 0
0.103333332 -0.0314914696 0
0.100000001 -0.0314914696 0
0.0966666639 -0.0314914696 0
0.0933333337 -0.0314914696 0
0.0900000036 -0.0314914696 0
0.086666666 -0.0314914696 0
0.0833333358 -0.0314914696 0
0.0799999982 -0.0314914696 0
0.0766666681 -0.0314914696 0
0.0733333305 -0.0314914696 0
0.0700000003 -0.0314914696 0
0.0666666701 -0.0314914696 0
0.0633333325 -0.0314914696 0
0.0599999987 -0.0314914696 0
0.0566666685 -0.0314914696 0
0.0533333346 -0.0314914696 0
0.0500000007 -0.0314914696 0
0.0466666669 -0.0314914696 0
0.043333333 -0.0314914696 0
0.0399999991 -0.0314914696 0
0.0366666652 -0.0314914696 0
0.135000005 -0.0343782231 0
0.13166666 -0.0343782231 0
0.12833333 -0.0343782231 0
0.125 -0.0343782231 0
0.12166667 -0.0343782231 0
0.118333332 -0.0343782231 0
0.115000002 -0.0343782231 0
0.111666664 -0.0343782231 0
0.108333334 -0.0343782231 0
0.104999997 -0.0343782231 0
0.101666667 -0.0343782231 0
0.0983333364 -0.0343782231 0
0.0949999988 -0.0343782231 0
0.0916666687 -0.0343782231 0
0.088333331 -0.0343782231 0
0.0850000009 -0.0343782231 0
0.0816666633 -0.0343782231 0
0.0783333331 -0.0343782231 0
0.075000003 -0.0343782231 0
0.0716666654 -0.0343782231 0
0.0683333352 -0.0343782231 0
0.0649999976 -0.0343782231 0
0.0616666675 -0.0343782231 0
0.0583333336 -0.0343782231 0
0.0549999997 -0.0343782231 0
0.0516666658 -0.0343782231 0
0.0483333319 -0.0343782231 0
0.0450000018 -0.0343782231 0
0.0416666679 -0.0343782231 0
0.038333334 -0.0343782231 0
0.0350000001 -0.0343782231 0
0.13333334 -0.0372649729 0
0.129999995 -0.0372649729 0
0.126666665 -0.0372649729 0
0.123333335 -0.0372649729 0
0.119999997 -0.0372649729 0
0.116666667 -0.0372649729 0
0.113333337 -0.0372649729 0
0.109999999 -0.0372649729 0
0.106666669 -0.0372649729 0
0.103333332 -0.0372649729 0
0.100000001 -0.0372649729 0
0.0966666639 -0.0372649729 0
0.0933333337 -0.0372649729 0
0.0900000036 -0.0372649729 0
0.086666666 -0.0372649729 0
0.0833333358 -0.0372649729 0
0.0799999982 -0.0372649729 0
0.0766666681 -0.0372649729 0
0.0733333305 -0.0372649729 0
0.0700000003 -0.0372649729 0
0.0666666701 -0.0372649729 0
0.0633333325 -0.0372649729 0
0.0599999987 -0.0372649729 0
0.0566666685 -0.0372649729 0
0.0533333346 -0.0372649729 0
0.0500000007 -0.0372649729 0
0.0466666669 -0.0372649729 0
0.043333333 -0.0372649729 0
0.0399999991 -0.0372649729 0
0.0366666652 -0.0372649729 0
0.0333333351 -0.0372649729 0
0.13166666 -0.0401517227 0
0.12833333 -0.0401517227 0
0.125 -0.0401517227 0
0.12166667 -0.0401517227 0
0.118333332 -0.0401517227 0
0.115000002 -0.0401517227 0
0.111666664 -0.0401517227 0
[...]
POINT_DATA 961
SCALARS Temp float 1
LOOKUP_TABLE default
591.8335303757573
551.8103700111544
514.6285206067066
480.8265511966758
450.5598238695391
423.85624495256894
400.6407867498312
380.7541210458469
363.9703606326068
350.016565497077
338.59167552052537
329.38404159055335
322.0872386733909
316.4132857356436
312.1029931883283
308.9339309406401
306.7259076527598
305.3446764369612
304.70410403159303
304.76726638329257
305.5466286943589
307.10336910595356
309.5457058711322
313.02605009010364
317.736575229391
323.90320017226577
331.77784702362885
341.6295761738823
353.73664705056234
368.3857385629938
386.0063889272046
551.8103810532162
511.6320057031732
474.88259873176423
441.7258799306667
412.2462201369686
386.4165250615589
364.11492499247345
345.1416325410839
329.23843611446074
316.1081097889025
305.4334529801473
296.89435010923194
290.1829115760507
285.0155342412558
281.1424899519849
278.354769943731
276.4888763847038
275.4298541861731
275.1129668875486
275.5243905869345
276.70098873930414
278.72914417111923
281.74248989738953
285.91820350085885
291.4715896042929
298.64894283672487
307.7185775123198
318.9611124754363
332.6601728742823
349.09999072207466
368.38575774092425
514.6284752114854
474.88257469284065
438.7585305907671
406.3799176806123
377.76936344043224
352.8503631934264
331.4599771327954
313.36546984066064
298.28394567798813
285.90178414865
275.8928276968076
267.93495175202634
261.72404076484173
256.9850359884192
253.48055467589708
251.01690265700054
249.4482334475512
248.6790505187065
248.66555159853996
249.41596722091586
250.98995941079258
253.496946206662
257.09314894026136
261.9769383138792
268.3823905442104
276.57076187602047
286.82000706205775
299.4125935354786
314.6201165383467
332.66016443660703
353.73665944161394
480.8264875276975
441.72583991010316
406.3799134128575
374.86780367164386
347.16556513645446
323.1560871752839
302.6429405632976
285.3686224625318
271.0334709729872
259.31467508167765
249.8835762684163
242.42131006127295
236.63147540057795
232.25043642421494
229.05486718845597
226.86721539120154
225.55932062518855
225.0545679482321
225.3289593915821
226.41115258547188
228.38146390951496
231.36966917400588
235.55125849564098
241.14181186519713
248.38935995671198
257.56430650196296
268.94720859591644
282.81346702369336
299.4126114102722
318.96112543840707
341.6295679372793
450.5597537416665
412.2461748008099
377.7693336010138
347.1656686179688
320.3720981176466
297.23892969320565
277.5449157328826
261.01564240539955
247.34214067862675
236.19867312951902
227.25934120280476
220.21243416001067
214.77208116767244
210.68766311169432
207.75064886566392
205.79957678664164
204.72328098858333
204.46285261417336
205.01246666320873
206.4191441119821
208.78134280882318
212.24616632262703
217.00476496074012
223.2857681831953
231.34632914274073
241.4606706136459
253.90620560184266
268.94720062842777
286.82000112472497
307.7185773875813
331.77785143299064
423.8561645276441
386.4165804799077
352.85043524288733
323.15604729537944
297.2389125149453
274.92449478467324
255.9748727831339
240.10611823645047
227.00621981067243
216.3517777607232
207.8236031701881
201.11973807669432
195.96648043456992
192.1268232054022
189.406912530169
187.66063094349417
186.79260894046456
186.76003594818363
187.5732839936313
189.29538519802546
192.04020086540345
195.9689735028044
201.2849176027724
208.22567121472434
217.0531503649182
228.0411630859416
241.4606652047983
257.5643082713626
276.57076773171855
298.648919712628
323.9031996641824
400.64080604590123
364.1149601467903
331.46003975343325
302.6428904811735
277.5448902282118
255.97486322167904
237.6853463652389
222.3893633608934
209.7768883865294
199.53080134762243
191.34119250329329
184.91745864212342
179.9985807565789
176.36100988093617
173.82480427821542
172.25794814090187
171.57930320981
171.76027473598103
172.8252608608321
174.85083336376778
177.9634524936028
182.3353520346302
188.17842635101687
195.73572817628985
205.27051407352047
217.05314423630352
231.34631694384532
248.3893427954702
268.3823934713162
291.4715894325532
317.73658251748526
380.7541396415074
345.14166455695005
313.36539420199574
285.368570050871
261.0156505774502
240.10614263310578
222.38935539570053
207.58025425078623
195.37473075652093
185.46458597853402
177.5505675478452
171.35403079976757
166.6263689905385
163.15670908277917
160.77778499350754
159.3701627937681
158.86515390117145
159.24636454695317
160.54998305729657
162.86365734993933
166.32373684674457
171.11057594454272
177.44174770686595
185.56277118301753
195.73572333779367
208.2256634095956
223.28577363525406
241.14181439500544
261.9769224331529
285.91818333858146
313.0260378000683
363.9703693677578
329.23847215609703
298.28390783822255
271.0334567741418
247.3421488121643
227.0061974132989
209.7768785845515
195.37475717572326
183.50427308281203
173.8675066751115
166.1764450927656
160.16407171762572
155.59340923699145
152.26505230011185
150.02288609788258
148.75837311570425
148.41340617548576
148.98178105583972
150.5093057135195
153.09237346178668
156.8747456316983
162.04239909128464
168.81611593568542
177.44175266950387
188.1784316632615
201.28491970131532
217.00476410236894
235.55125362983458
257.0931512101837
281.7425001467093
309.54572537443585
350.01661694822036
316.1080467185724
285.90175535029704
259.3146649031604
236.19868273510642
216.3517777265167
199.53081401821484
185.46457564567052
173.86749876225738
164.45227892529803
156.94193701532825
151.08018767085588
146.64048260416936
143.43339730351425
141.31236032417016
140.17799934885616
139.98094744540433
140.72327254023674
142.45839008450037
145.28934259652394
149.36520702339902
154.87552184321703
162.04239502353698
171.1105762226394
182.33535042871026
195.96897027508385
212.2461618501436
231.36964901542515
253.49693095475322
278.7291271015749
307.1033613051456
338.59175370223267
305.4334013430118
275.8928054994068
249.88359112034496
227.25932437599005
207.82360376623663
191.34120569588757
177.55057175313007
166.17645354969338
156.94193555565226
149.58011610031946
143.8442512282269
139.51678149679705
136.41665271254425
134.40521534578377
133.39057622406818
133.3304102945017
134.23331355753075
136.15853928240767
139.21399354436878
143.5523747920222
149.36521598932387
156.87474712390937
166.32373311045274
177.9634464769778
192.04020134430357
208.7813407946824
228.38146156497
250.9899649393625
276.70099585344906
305.5466171884751
329.3839832527623
296.89432388622987
267.9349531090927
242.42132731994204
220.21241747424565
201.119752271834
184.91744990344603
171.35403446543285
160.16405919197737
151.08018627871445
143.8442620100728
138.21764631761764
133.99019349579174
130.9876709527237
129.0778005001423
128.17461089588363
128.2413094036069
129.29151260840626
131.3888330414597
134.64464913668914
139.2140014986918
145.28934768740288
153.09237111382058
162.86366857603687
174.85084483857315
189.29539832362872
206.41913734892103
226.41114474660898
249.4159703702071
275.52439393903256
304.76727996207364
322.0872050026461
290.18289917978365
261.72405382546395
236.6314569192875
214.7720841363349
195.96650109092494
179.99857647346008
166.62637639024499
155.59340559803005
146.64048887254498
139.5167758444378
133.99018952736537
129.85641143037915
126.94656843835506
125.1333261352187
124.33530879547243
124.51996746482247
125.7047237205565
127.95639656733664
131.3888240704284
136.1585367955044
142.45839746143025
150.5092974855738
160.54998049135017
172.8252571666017
187.57327946835215
205.01246487105186
225.3289578633164
248.66555937834573
275.1129445425611
304.704108109695
316.4132536873808
285.0155334688419
256.9850624828103
232.25041948617883
210.68766931790466
192.12680491306313
176.36101426677078
163.15670062982255
152.26504936244
143.4334054682931
136.41664654547765
130.9876729579446
126.94656746014788
124.12849522710498
122.40982393015447
121.71268568960427
122.00775768917235
123.31535538980386
125.70472218266377
129.29151543869955
134.23331386998885
140.7232773539801
148.98178053811353
159.2463715358375
171.76028497636295
186.76003043254727
204.46284666185718
225.05456185173523
248.67905226487522
275.4298574640278
305.34467484407446
312.1029868819715
281.1425054675423
253.48053433030103
229.0548642926181
207.75067340795803
189.40690990882257
173.82481759826078
160.77778235244642
150.0228848163985
141.31235876887735
134.40521606572972
129.07780329360628
125.13332470434992
122.40982615287702
120.78642483270544
120.1879095466407
120.58748111517683
122.00775640416204
124.51996475154866
128.24130684494753
133.33041082177908
139.98094490090548
148.4133979243424
158.86515207140414
171.57930082157537
186.79260785667464
204.72327954300184
225.5593204378593
249.4482151374376
276.48887376692414
306.7259008638372
308.9339286165826
278.3547898095202
251.01689031277064
226.867221651569
205.79955772905373
187.66063140198514
172.25793420255013
159.3701653809933
148.75837861240487
140.1779987651345
133.3905780673558
128.17460524890723
124.33531009313054
121.71268327652238
120.18790968131003
119.68787546764038
120.18791048124713
121.71268435738519
124.33531259089145
128.17460798318385
133.3905752028808
140.17800403910098
148.75837392173014
159.3701717678867
172.25794150413026
187.66062517677608
205.799572162747
226.86721097957485
251.01690849699204
278.3547572329889
308.9339312612989
306.7259299806765
276.48885287664086
249.44824093142165
225.55934493146512
204.72327601115506
186.79262494209715
171.57930199914938
158.86516256541708
148.41339815336775
139.98095306906342
133.33041809482847
128.2413073678833
124.51997240615583
122.00775748915257
120.58748200208001
120.18791110481905
120.78642615771658
122.40982294538412
125.13332648731264
129.07779965456837
134.40521155427606
141.3123605452864
150.022877890602
160.77778308178137
173.82480439680438
189.40691444696444
207.75065286837201
229.05484202608014
253.4805525255196
281.1424738616331
312.1029889699528
305.3447075838503
275.429837389629
248.67906363670033
225.05454480878794
204.46285313615246
186.76002139907274
171.76027711760875
159.2463767970437
148.98177402432776
140.72328076300315
134.23331032369825
129.29151219972368
125.7047205146157
123.31535403631665
122.00775895737769
121.71268597799113
122.4098244558295
124.12849702172142
126.94656942804974
130.98767059098628
136.4166506692249
143.43340133440898
152.26505441407764
163.1567063424444
176.36100829957974
192.1268166443789
210.68765852794735
232.2504335604788
256.98502837932205
285.0155294630928
316.4132846532394
304.7040724258092
275.11295741512464
248.66557140073337
225.32894016106292
205.01247222052564
187.57327042014234
172.82526057445412
160.5499732360004
150.50930101504844
142.4584010409362
136.15853302475588
131.3888303953113
127.95639484696268
125.70472237461993
124.51996730392281
124.33530885878875
125.13332410030489
126.94657002107765
129.85640942619892
133.990187440048
139.5167794264054
146.64048617418015
155.59341018446793
166.62637017219816
179.99858662037235
195.96649036260456
214.7720727520205
236.63148218104695
261.7240340292335
290.18290872590796
322.0872482715838
304.767260497289
275.52440576340416
249.4159503463528
226.41115120208488
206.41912647098627
189.29538895597497
174.8508507032959
162.8636608443096
153.09237513305976
145.289343356487
139.2139975457497
134.64464689691678
131.38883113488754
129.2915151172462
128.24130925422364
128.17461093215707
129.0778016708631
130.9876722427962
133.99019158359394
138.21764943830667
143.84425841156278
151.08019018465012
160.16406352182474
171.35402881709007
184.91745925045538
201.11974166352942
220.21242849900239
242.42129427276757
267.9349465198674
296.8943480425251
329.3840337584836
305.5466281581961
276.7010069846139
250.98994403672015
228.3814689686023
208.7813301677883
192.04020506282822
177.96343799662571
166.3237372402178
156.87475136830088
149.3652114962474
143.55238268247237
139.2139913691098
136.15853750174426
134.23331295828083
133.3304098506529
133.3905753824629
134.4052163841148
136.41665113255561
139.5167798331649
143.84425388695917
149.58011365424184
156.94193901504744
166.1764478303138
177.55057986398828
191.34119551684404
207.82359287660523
227.2593459664113
249.88357246743698
275.8928148568541
305.43344446789536
338.591666182167
307.10337015191965
278.72910276342157
253.49693708181144
231.36963647967545
212.2461512056668
195.96897686609663
182.33534168531727
171.11058095746804
162.04239004699156
154.87551730000538
149.36520429626762
145.28934019851275
142.45839377569416
140.7232720577812
139.9809470896043
140.17800000549946
141.3123610539419
143.43339580536323
146.64048489650563
151.0801845717935
156.94193998363403
164.45228210759558
173.86749349981577
185.4645830714574
199.53080403335846
216.3517868966943
236.19865277407294
259.31466032286704
285.90178323566766
316.10811552267523
350.01657593590915
309.545755353286
281.7424977159304
257.09317923976704
235.5512609720872
217.0047863781045
201.28492733826369
188.17845269047157
177.4417730787952
168.8161256205082
162.0424226788632
156.87475680641927
153.0923845951308
150.5093176177953
148.98179267406752
148.41341849566265
148.75838547634427
150.0228962012926
152.26506183905462
155.59342139871626
160.1640790758229
166.17645640624883
173.86750932039072
183.50428633345214
195.37475334904383
209.77687292484165
227.00621938687456
247.34213408716275
271.03346827651524
298.283954353415
329.23839932706926
363.97033875929856
313.0260351045051
285.9182132622228
261.97693073041205
241.14182364664563
223.28580084295675
208.22567293233593
195.73574706265987
185.56278333061715
177.44175976084745
171.11058937531917
166.32375016502226
162.86367783496846
160.54999775963532
159.2463789928907
158.86516891771407
159.3701774877318
160.77779785317492
163.15672424503381
166.62637929878508
171.354045333728
177.5505813355255
185.46459172337498
195.37474620260897
207.58025334081302
222.38937010631477
240.1061211307185
261.0156512540663
285.3686004649895
313.3654619778575
345.14162452283676
380.7541263828656
317.73657324322204
291.4716104724524
268.38239268684504
248.38935882266168
231.346317687191
217.05316021977842
205.27052988922836
195.73573254037652
188.17844665002767
182.33535870302768
177.96345935819744
174.85084118933005
172.825268551358
171.7602845284083
171.5793121463264
172.25795569828142
173.82481159443068
176.36101928086057
179.99858652840356
184.91746788661098
191.34119476275126
199.53081290827342
209.77688542179948
222.38935917159887
237.68536699836156
255.97485124318675
277.5449024536329
302.6429347053157
331.45997043822126
364.11492783963547
400.64080996408074
323.9032086148995
298.64890627065716
276.5707563445766
257.56431694283725
241.4606558714033
228.04116963671189
217.05314496205148
208.2256662217407
201.28491438757726
195.96897051753706
192.04020647764779
189.29538440056805
187.57328319340172
186.7600359324771
186.7926089233345
187.66063010047742
189.40691366565028
192.12682087682916
195.96648202262267
201.11973946619747
207.82359833744778
216.3517818593937
227.00621020199108
240.10612299241305
255.97484543900427
274.9244876731697
297.23893220218116
323.1560997682139
352.8503833151734
386.41654552857045
423.8561640652488
331.77784632496866
307.7185513425748
286.81999356165835
268.94717753919565
253.90619893842415
241.46066401677692
231.34631059312042
223.28576689416684
217.00474929348252
212.24615103906467
208.78132861833765
206.4191299241974
205.01245560809085
204.46284013939956
204.72326783152974
205.79956371111072
207.7506375801069
210.68764918890153
214.7720704860458
220.212417960329
227.25933340973194
236.1986530009298
247.34211986618504
261.01564390572054
277.5448875844967
297.2389228603705
320.37211888476105
347.1655799042824
377.7692726984938
412.24613725193274
450.55974255806444
341.6295842305408
318.9611441803908
299.4126510470415
282.8134878198463
268.9472453176662
257.56433046904806
248.3893841217552
241.14183754918525
235.55128425466162
231.3697040373132
228.38149172953413
226.41118023866795
225.3289875966628
225.05459599016382
225.55934807696397
226.86724404148023
229.05489269656852
232.2504647952786
236.63150298338192
242.42133159160738
249.8836047219418
259.31469022009776
271.0334974324818
285.36861788437494
302.6429517096649
323.1561192174662
347.1656222387337
374.86775575431875
406.3798703110031
441.7258134420258
480.8264944667952
353.73667189944473
332.6601973710521
314.62013299833217
299.4126258610675
286.8200389361218
276.5707812727133
268.38242728789385
261.97696029336066
257.0931711841426
253.4969693483272
250.98998236794833
249.41599357978487
248.66557596661963
248.67907428767822
249.448257073099
251.01692734465965
253.48057670903557
256.98506026779353
261.7240595727094
267.9349770941501
275.8928409254109
285.901795420866
298.2839753345192
313.365470028025
331.4599936527769
352.8504007379741
377.76929286862736
406.3798642173297
438.75848652012064
474.8825422826573
514.628472635923
368.38576110876573
349.10001252999825
332.6601745371924
318.961129329003
307.71858153606104
298.64894699785054
291.47159521312955
285.9182092657615
281.7425050140946
278.7291522299391
276.70099660095934
275.52439905397256
275.1129753383203
275.42986247146905
276.4888857229972
278.3547767537255
281.14249945182837
285.0155431742087
290.18291538919453
296.8943603458655
305.43345130227794
316.1081184767301
329.23841630485816
345.14162667145735
364.11493709927095
386.4165583074266
412.2461521087853
441.7258101442304
474.8825332404819
511.6319496315935
551.8102971607934
386.0064040404908
368.38573251174984
353.73665544955685
341.6295838132738
331.77784196664334
323.90321203319274
317.7365724569922
313.0260481967826
309.5457047427746
307.10336721389103
305.5466305089771
304.7672660718091
304.70410359404264
305.3446758455688
306.72590804996
308.9339292240091
312.10299326565445
316.41328143062157
322.08724035064296
329.3840323689637
338.5916646910375
350.0165719265703
363.97034032458515
380.75411518562595
400.64079906730063
423.8561560350367
450.559749656771
480.8264805354591
514.6284492486293
551.8102818295778
591.8331831198088
