# vtk DataFile Version 2.0
Unstructured Grid Example
ASCII
DATASET UNSTRUCTURED_GRID

POINTS 961 float
0.150000006 -0.00839745998 0
0.146666661 -0.00839745998 0
0.143333331 -0.00839745998 0
0.140000001 -0.00839745998 0
0.13666667 -0.00839745998 0
0.13333334 -0.00839745998 0
0.129999995 -0.00839745998 0
0.126666665 -0.00839745998 0
0.123333335 -0.00839745998 0
0.119999997 -0.00839745998 0
0.116666667 -0.00839745998 0
0.113333337 -0.00839745998 0
0.109999999 -0.00839745998 0
0.106666669 -0.00839745998 0
0.103333332 -0.00839745998 0
0.100000001 -0.00839745998 0
0.0966666639 -0.00839745998 0
0.0933333337 -0.00839745998 0
0.0900000036 -0.00839745998 0
0.086666666 -0.00839745998 0
0.0833333358 -0.00839745998 0
0.0799999982 -0.00839745998 0
0.0766666681 -0.00839745998 0
0.0733333305 -0.00839745998 0
0.0700000003 -0.00839745998 0
0.0666666701 -0.00839745998 0
0.0633333325 -0.00839745998 0
0.0599999987 -0.00839745998 0
0.0566666685 -0.00839745998 0
0.0533333346 -0.00839745998 0
0.0500000007 -0.00839745998 0
0.148333326 -0.0112842107 0
0.144999996 -0.0112842107 0
0.141666666 -0.0112842107 0
0.138333336 -0.0112842107 0
0.135000005 -0.0112842107 0
0.13166666 -0.0112842107 0
0.12833333 -0.0112842107 0
0.125 -0.0112842107 0
0.12166667 -0.0112842107 0
0.118333332 -0.0112842107 0
0.115000002 -0.0112842107 0
0.111666664 -0.0112842107 0
0.108333334 -0.0112842107 0
0.104999997 -0.0112842107 0
0.101666667 -0.0112842107 0
0.0983333364 -0.0112842107 0
0.0949999988 -0.0112842107 0
0.0916666687 -0.0112842107 0
0.088333331 -0.0112842107 0
0.0850000009 -0.0112842107 0
0.0816666633 -0.0112842107 0
0.0783333331 -0.0112842107 0
0.075000003 -0.0112842107 0
0.0716666654 -0.0112842107 0
0.0683333352 -0.0112842107 0
0.0649999976 -0.0112842107 0
0.0616666675 -0.0112842107 0
0.0583333336 -0.0112842107 0
0.0549999997 -0.0112842107 0
0.0516666658 -0.0112842107 0
0.0483333319 -0.0112842107 0
0.146666661 -0.0141709624 0
0.143333331 -0.0141709624 0
0.140000001 -0.0141709624 0
0.13666667 -0.0141709624 0
0.13333334 -0.0141709624 0
0.129999995 -0.0141709624 0
0.126666665 -0.0141709624 0
0.123333335 -0.0141709624 0
0.119999997 -0.0141709624 0
0.116666667 -0.0141709624 0
0.113333337 -0.0141709624 0
0.109999999 -0.0141709624 0
0.106666669 -0.0141709624 0
0.103333332 -0.0141709624 0
0.100000001 -0.0141709624 0
0.0966666639 -0.0141709624 0
0.0933333337 -0.0141709624 0
0.0900000036 -0.0141709624 0
0.086666666 -0.0141709624 0
0.0833333358 -0.0141709624 0
0.0799999982 -0.0141709624 0
0.0766666681 -0.0141709624 0
0.0733333305 -0.0141709624 0
0.0700000003 -0.0141709624 0
0.0666666701 -0.0141709624 0
0.0633333325 -0.0141709624 0
0.0599999987 -0.0141709624 0
0.0566666685 -0.0141709624 0
0.0533333346 -0.0141709624 0
0.0500000007 -0.0141709624 0
0.0466666669 -0.0141709624 0
0.144999996 -0.0170577131 0
0.141666666 -0.0170577131 0
0.138333336 -0.0170577131 0
0.135000005 -0.0170577131 0
0.13166666 -0.0170577131 0
0.12833333 -0.0170577131 0
0.125 -0.0170577131 0
0.12166667 -0.0170577131 0
0.118333332 -0.0170577131 0
0.115000002 -0.0170577131 0
0.111666664 -0.0170577131 0
0.108333334 -0.0170577131 0
0.104999997 -0.0170577131 0
0.101666667 -0.0170577131 0
0.0983333364 -0.0170577131 0
0.0949999988 -0.0170577131 0
0.0916666687 -0.0170577131 0
0.088333331 -0.0170577131 0
0.0850000009 -0.0170577131 0
0.0816666633 -0.0170577131 0
0.0783333331 -0.0170577131 0
0.075000003 -0.0170577131 0
0.0716666654 -0.0170577131 0
0.0683333352 -0.0170577131 0
0.0649999976 -0.0170577131 0
0.0616666675 -0.0170577131 0
0.0583333336 -0.0170577131 0
0.0549999997 -0.0170577131 0
0.0516666658 -0.0170577131 0
0.0483333319 -0.0170577131 0
0.0450000018 -0.0170577131 0
0.143333331 -0.0199444648 0
0.140000001 -0.0199444648 0
0.13666667 -0.0199444648 0
0.13333334 -0.0199444648 0
0.129999995 -0.0199444648 0
0.126666665 -0.0199444648 0
0.123333335 -0.0199444648 0
0.119999997 -0.0199444648 0
0.116666667 -0.0199444648 0
0.113333337 -0.0199444648 0
0.109999999 -0.0199444648 0
0.106666669 -0.0199444648 0
0.103333332 -0.0199444648 0
0.100000001 -0.0199444648 0
0.0966666639 -0.0199444648 0
0.0933333337 -0.0199444648 0
0.0900000036 -0.0199444648 0
0.086666666 -0.0199444648 0
0.0833333358 -0.0199444648 0
0.0799999982 -0.0199444648 0
0.0766666681 -0.0199444648 0
0.0733333305 -0.0199444648 0
0.0700000003 -0.0199444648 0
0.0666666701 -0.0199444648 0
0.0633333325 -0.0199444648 0
0.0599999987 -0.0199444648 0
0.0566666685 -0.0199444648 0
0.0533333346 -0.0199444648 0
0.0500000007 -0.0199444648 0
0.0466666669 -0.0199444648 0
0.043333333 -0.0199444648 0
0.141666666 -0.0228312165 0
0.138333336 -0.0228312165 0
0.135000005 -0.0228312165 0
0.13166666 -0.0228312165 0
0.12833333 -0.0228312165 0
0.125 -0.0228312165 0
0.12166667 -0.0228312165 0
0.118333332 -0.0228312165 0
0.115000002 -0.0228312165 0
0.111666664 -0.0228312165 0
0.108333334 -0.0228312165 0
0.104999997 -0.0228312165 0
0.101666667 -0.0228312165 0
0.0983333364 -0.0228312165 0
0.0949999988 -0.0228312165 0
0.0916666687 -0.0228312165 0
0.088333331 -0.0228312165 0
0.0850000009 -0.0228312165 0
0.0816666633 -0.0228312165 0
0.0783333331 -0.0228312165 0
0.075000003 -0.0228312165 0
0.0716666654 -0.0228312165 0
0.0683333352 -0.0228312165 0
0.0649999976 -0.0228312165 0
0.0616666675 -0.0228312165 0
0.0583333336 -0.0228312165 0
0.0549999997 -0.0228312165 0
0.0516666658 -0.0228312165 0
0.0483333319 -0.0228312165 0
0.0450000018 -0.0228312165 0
0.0416666679 -0.0228312165 0
0.140000001 -0.0257179681 0
0.13666667 -0.0257179681 0
0.13333334 -0.0257179681 0
0.129999995 -0.0257179681 0
0.126666665 -0.0257179681 0
0.123333335 -0.0257179681 0
0.119999997 -0.0257179681 0
0.116666667 -0.0257179681 0
0.113333337 -0.0257179681 0
0.109999999 -0.0257179681 0
0.106666669 -0.0257179681 0
0.103333332 -0.0257179681 0
0.100000001 -0.0257179681 0
0.0966666639 -0.0257179681 0
0.0933333337 -0.0257179681 0
0.0900000036 -0.0257179681 0
0.086666666 -0.0257179681 0
0.0833333358 -0.0257179681 0
0.0799999982 -0.0257179681 0
0.0766666681 -0.0257179681 0
0.0733333305 -0.0257179681 0
0.0700000003 -0.0257179681 0
0.0666666701 -0.0257179681 0
0.0633333325 -0.0257179681 0
0.0599999987 -0.0257179681 0
0.0566666685 -0.0257179681 0
0.0533333346 -0.0257179681 0
0.0500000007 -0.0257179681 0
0.0466666669 -0.0257179681 0
0.043333333 -0.0257179681 0
0.0399999991 -0.0257179681 0
0.138333336 -0.0286047198 0
0.135000005 -0.0286047198 0
0.13166666 -0.0286047198 0
0.12833333 -0.0286047198 0
0.125 -0.0286047198 0
0.12166667 -0.0286047198 0
0.118333332 -0.0286047198 0
0.115000002 -0.0286047198 0
0.111666664 -0.0286047198 0
0.108333334 -0.0286047198 0
0.104999997 -0.0286047198 0
0.101666667 -0.0286047198 0
0.0983333364 -0.0286047198 0
0.0949999988 -0.0286047198 0
0.0916666687 -0.0286047198 0
0.088333331 -0.0286047198 0
0.0850000009 -0.0286047198 0
0.0816666633 -0.0286047198 0
0.0783333331 -0.0286047198 0
0.075000003 -0.0286047198 0
0.0716666654 -0.0286047198 0
0.0683333352 -0.0286047198 0
0.0649999976 -0.0286047198 0
0.0616666675 -0.0286047198 0
0.0583333336 -0.0286047198 0
0.0549999997 -0.0286047198 0
0.0516666658 -0.0286047198 0
0.0483333319 -0.0286047198 0
0.0450000018 -0.0286047198 0
0.0416666679 -0.0286047198 0
0.038333334 -0.0286047198 0
0.13666667 -0.0314914696 0
0.13333334 -0.0314914696 0
0.129999995 -0.0314914696 0
0.126666665 -0.0314914696 0
0.123333335 -0.0314914696 0
0.119999997 -0.0314914696 0
0.116666667 -0.0314914696 0
0.113333337 -0.0314914696 0
0.109999999 -0.0314914696 0
0.106666669 -0.0314914696 0
0.103333332 -0.0314914696 0
0.100000001 -0.0314914696 0
0.0966666639 -0.0314914696 0
0.0933333337 -0.0314914696 0
0.0900000036 -0.0314914696 0
0.086666666 -0.0314914696 0
0.0833333358 -0.0314914696 0
0.0799999982 -0.0314914696 0
0.0766666681 -0.0314914696 0
0.0733333305 -0.0314914696 0
0.0700000003 -0.0314914696 0
0.0666666701 -0.0314914696 0
0.0633333325 -0.0314914696 0
0.0599999987 -0.0314914696 0
0.0566666685 -0.0314914696 0
0.0533333346 -0.0314914696 0
0.0500000007 -0.0314914696 0
0.0466666669 -0.0314914696 0
0.043333333 -0.0314914696 0
0.0399999991 -0.0314914696 0
0.0366666652 -0.0314914696 0
0.135000005 -0.0343782231 0
0.13166666 -0.0343782231 0
0.12833333 -0.0343782231 0
0.125 -0.0343782231 0
0.12166667 -0.0343782231 0
0.118333332 -0.0343782231 0
0.115000002 -0.0343782231 0
0.111666664 -0.0343782231 0
0.108333334 -0.0343782231 0
0.104999997 -0.0343782231 0
0.101666667 -0.0343782231 0
0.0983333364 -0.0343782231 0
0.0949999988 -0.0343782231 0
0.0916666687 -0.0343782231 0
0.088333331 -0.0343782231 0
0.0850000009 -0.0343782231 0
0.0816666633 -0.0343782231 0
0.0783333331 -0.0343782231 0
0.075000003 -0.0343782231 0
0.0716666654 -0.0343782231 0
0.0683333352 -0.0343782231 0
0.0649999976 -0.0343782231 0
0.0616666675 -0.0343782231 0
0.0583333336 -0.0343782231 0
0.0549999997 -0.0343782231 0
0.0516666658 -0.0343782231 0
0.0483333319 -0.0343782231 0
0.0450000018 -0.0343782231 0
0.0416666679 -0.0343782231 0
0.038333334 -0.0343782231 0
0.0350000001 -0.0343782231 0
0.13333334 -0.0372649729 0
0.129999995 -0.0372649729 0
0.126666665 -0.0372649729 0
0.123333335 -0.0372649729 0
0.119999997 -0.0372649729 0
0.116666667 -0.0372649729 0
0.113333337 -0.0372649729 0
0.109999999 -0.0372649729 0
0.106666669 -0.0372649729 0
0.103333332 -0.0372649729 0
0.100000001 -0.0372649729 0
0.0966666639 -0.0372649729 0
0.0933333337 -0.0372649729 0
0.0900000036 -0.0372649729 0
0.086666666 -0.0372649729 0
0.0833333358 -0.0372649729 0
0.0799999982 -0.0372649729 0
0.0766666681 -0.0372649729 0
0.0733333305 -0.0372649729 0
0.0700000003 -0.0372649729 0
0.0666666701 -0.0372649729 0
0.0633333325 -0.0372649729 0
0.0599999987 -0.0372649729 0
0.0566666685 -0.0372649729 0
0.0533333346 -0.0372649729 0
0.0500000007 -0.0372649729 0
0.0466666669 -0.0372649729 0
0.043333333 -0.0372649729 0
0.0399999991 -0.0372649729 0
0.0366666652 -0.0372649729 0
0.0333333351 -0.0372649729 0
0.13166666 -0.0401517227 0
0.12833333 -0.0401517227 0
0.125 -0.0401517227 0
0.12166667 -0.0401517227 0
0.118333332 -0.0401517227 0
0.115000002 -0.0401517227 0
0.111666664 -0.0401517227 0
[...]
POINT_DATA 961
SCALARS Temp float 1
LOOKUP_TABLE default
279.0312260423842
230.27379767411364
198.2640566507236
180.54014508598414
171.85960336580104
168.02331898747246
166.4640824877589
165.87162479063005
165.65840778470556
165.58499624933455
165.5606282527197
165.5527875820643
165.55032905944742
165.54957526368534
165.54934996786926
165.5492811631434
165.5492619902194
165.54925560471986
165.54925779434694
165.5492684737242
165.54932405695274
165.54959763293462
165.55088344410677
165.55671612341962
165.58176701184482
165.6824458040413
166.05417269287094
167.28610715842572
170.85363982095902
179.65586508087517
198.30509826280652
230.27381542410745
186.53367459595182
160.56959031242732
146.89936963669953
140.4696444705725
137.71705622443713
136.62543049984015
136.2184218660656
136.07409335325164
136.02498343257065
136.0088399054521
136.00368529517044
136.0020803078067
136.00159137248326
136.00144361941784
136.00140197941735
136.00139009983636
136.00138786507915
136.00139166724844
136.00141790254938
136.00154874500438
136.00217153399376
136.00503695528127
136.0175464442017
136.06895771127483
136.26473424827822
136.9419191147924
139.0198597315206
144.53783156432604
156.96267753163718
179.65588146912057
198.26402820145282
160.56958316656505
138.48184007355454
126.98516617417745
121.6016687146935
119.29701307800579
118.38069500856355
118.03776571856662
117.91566093742294
117.87394733847162
117.86018639551685
117.85577834676192
117.8544017419257
117.85398143010976
117.85385560361719
117.8538180213666
117.85380690492633
117.85380717521194
117.85381805750755
117.85387580690131
117.8541539551135
117.85543830036322
117.86109957495313
117.88469448842808
117.97643144292779
118.30367278758374
119.35399394263936
122.32406924096868
129.57506053793244
144.5378219338134
170.85364382795285
180.5401200514904
146.89936484530534
126.98517323845901
116.51264813560547
111.56151965261476
109.42358298329391
108.56717639965687
108.2446555961502
108.12922450820925
108.08962516305381
108.07651468671776
108.07230336541417
108.07098518671195
108.07058120492506
108.07046072828345
108.07042522717622
108.07041607166197
108.07041770995649
108.07044091583465
108.07055617320957
108.07109013042809
108.07345831583793
108.08340567923928
108.12260817469875
108.26556002600519
108.74037456622274
110.15338377638484
113.86177230228917
122.32407746474166
139.01987024115178
167.28610003618462
171.85959180875693
140.46964503416473
121.60167269400303
111.56153898283546
106.7734490696149
104.69281129280647
103.85548966822206
103.53907364545388
103.42553690044264
103.38651130694642
103.3735714931537
103.3694100230955
103.36810625465583
103.36770702939694
103.36758695296787
103.3675516957644
103.36754363699767
103.36755012639092
103.36759452928125
103.36780358343691
103.36873167129475
103.37264629492435
103.38820915275863
103.44586342403977
103.64243753896396
104.25165004370571
105.94836766334674
110.1533806155578
119.35399191795052
136.9419162186141
166.05417938171414
168.02330891443373
137.71707020649427
119.29702896065864
109.42356899972509
104.69280679399293
102.63075313643324
101.79921387910372
101.48454404250884
101.37152366936694
101.33264750503467
101.31975071832765
101.3156014755353
101.3143009897405
101.31390273520026
101.31378318774566
101.3137486586999
101.31374184838089
101.31375576724719
101.3138327429065
101.31417705612837
101.31563315461642
101.3214528718249
101.34326061186657
101.41913410551706
101.66199066179982
102.37154918961235
104.25164960111407
108.74037527311424
118.30367799891253
136.26471847449125
165.68243709272534
166.46408026376977
136.62543971505903
118.38071734876046
108.5671585253238
103.85548491940281
101.79921322267872
100.9693655683377
100.65518144936186
100.54229765437523
100.50345965371046
100.49057345956676
100.48642713002711
100.48512759284283
100.48472939874344
100.48460999160062
100.48457600014801
100.48457175721732
100.48459650279594
100.48471800516248
100.48523443969012
100.48730584859204
100.49513384141041
100.5228061000904
100.61371014357358
100.88979560083716
101.66199011192238
103.64243571688816
108.26555649101455
117.97642827686101
136.06895494774952
165.5817764450525
165.8716313309818
136.2184342837938
118.03773033899243
108.244640999389
103.53907141827342
101.48454536730107
100.6551812456823
100.34112915881747
100.22828063101657
100.18945231018633
100.17656865497186
100.17242300180374
100.17112364085135
100.17072557464644
100.17060641643783
100.17057316296831
100.1705723852466
100.17061121971422
100.17078653709244
100.17149387716601
100.17418454158322
100.18381842953222
100.216144727042
100.31748512555588
100.61370997561974
101.41913394437756
103.44586350832299
108.12260835868224
117.88468604972873
136.01752995025348
165.55670638096973
165.6584037187706
136.07411357596618
117.91562481320753
108.12921400558511
103.42553681996115
101.37152249908414
100.54229767183548
100.22828099549677
100.11544152711456
100.07661560379009
100.06373254873114
100.05958708060211
100.05828774424728
100.05788974399701
100.05777083308668
100.05773866511507
100.05774219910565
100.05779732415911
100.05802988297725
100.05892147767793
100.06214804814749
100.07316743761545
100.10863353616877
100.21614484353445
100.5228060087622
101.34326026279685
103.38820880930552
108.08340335019643
117.86110174753367
136.0050415322046
165.55090042683085
165.5850135698066
136.02492338672633
117.87393166437172
108.08962392821188
103.38651590176312
101.33264758263941
100.50346029247628
100.18945234414976
100.07661558898737
100.03779017021576
100.02490729760844
100.02076186385955
100.01946255866336
100.0190646457148
100.01894604822668
100.01891516275172
100.01892348506394
100.0189952569
100.01928102483592
100.02032679020874
100.02395249843593
100.03588349782697
100.07316739204065
100.1838183756384
100.49513385509002
101.3214528536331
103.372646448488
108.07345107252695
117.85542859442967
136.00215758240978
165.54958780159703
165.5606797525406
136.00879762032915
117.86018180256146
108.07651848928768
103.37357032368132
101.31975137496403
100.49057437207713
100.1765686571729
100.06373259962389
100.02490729517942
100.01202446805252
100.00787904292267
100.00657976924202
100.00618195204105
100.00606372969926
100.00603421793296
100.00604726345604
100.00613401229084
100.00646296510371
100.00762055489344
100.011503145319
100.02395251520797
100.06214806406834
100.17418448179134
100.48730569620106
101.31563287130886
103.36873042448936
108.07108955164304
117.85415693165122
136.00155655972964
165.54931211354227
165.5527408923867
136.00366589629985
117.85578199304192
108.07231178458181
103.36940873144842
101.31560227672064
100.48642685406062
100.17242303964542
100.05958698957922
100.02076186486778
100.00787905077053
100.0037336367789
100.00243439992593
100.00203669425733
100.00191886425458
100.00189066842627
100.00190783823071
100.0020064134972
100.00236596175468
100.00359413208943
100.00762056494081
100.02032680224006
100.0589214560876
100.17149397693257
100.48523470420093
101.31417809944135
103.36780236066
108.07055376359527
117.85387647741501
136.00141838005524
165.5492815928932
165.55031546204972
136.00208558910515
117.85441685223574
108.07098232919193
103.36810716938744
101.31430313204609
100.48512742695301
100.17112385194397
100.0582876865876
100.01946257297553
100.00657976429373
100.00243439773178
100.00113521803729
100.00073764583266
100.00062019695139
100.00059313208385
100.00061348925783
100.00072027234188
100.00109879970286
100.00236595770129
100.00646296300174
100.01928104162045
100.05802981332185
100.17078650113868
100.48471789671221
101.31383231126688
103.36759406383106
108.07044016733077
117.85382191820261
136.00137152113362
165.5492594761925
165.54956349784464
136.00159567862502
117.8539985312242
108.07057664942062
103.36770762980437
101.31390165000519
100.48472935862264
100.1707254247568
100.05788971261924
100.01906467080184
100.00618194410238
100.00203669327753
100.00073764552299
100.00034026517379
100.00022318762329
100.00019701527233
100.00021956657352
100.0003313766358
100.00072027187107
100.0020064145176
100.00613401038285
100.01899526623536
100.05779731774487
100.1706113333735
100.4845968562757
101.3137552744177
103.36754900268156
108.07041554784517
117.85380670736669
136.0013909635551
165.54925577242767
165.54935171997346
136.0014603102254
117.85384718695488
108.07045994200826
103.36759080423859
101.31378267129725
100.4846105643508
100.1706063412177
100.0577708257911
100.01894604361661
100.00606372831895
100.00191886566124
100.0006201966188
100.00022318778367
100.00010654453348
100.00008107421223
100.00010500864812
100.00021956639053
100.00061348856731
100.0019078365464
100.00604726422084
100.01892347835508
100.05774213924384
100.17057234918661
100.48457157342159
101.31374167150017
103.367543342484
108.07041574332787
117.85379792967814
136.00138718148906
165.54925599799472
165.54927877756273
136.00141814773718
117.85380740039201
108.07042521840634
103.36754897021812
101.31374841992016
100.48457555428173
100.17057316123591
100.05773869688231
100.0189151529028
100.00603421821002
100.00189066510049
100.00059313205423
100.00019701498954
100.00008107420716
100.00005626848224
100.00008107425928
100.000197015061
100.00059313290079
100.00189066659017
100.00603421538463
100.01891517493291
100.0577386624878
100.17057329437684
100.48457579851662
101.31374816598735
103.36755122102515
108.07042315471121
117.85382198087426
136.00139490599798
165.54928515810096
165.54927536571785
136.00136700805194
117.85380958441813
108.07042381219034
103.36754242635634
101.31374315849438
100.48457156396601
100.1705724720045
100.05774213785533
100.01892349504546
100.00604727238287
100.00190783607191
100.00061349009768
100.0002195664245
100.00010500869516
100.00008107430399
100.00010654462676
100.00022318742846
100.0006201968812
100.00191886309754
100.00606372261578
100.0189460422896
100.05777077795666
100.17060633742199
100.48460998314702
101.31378316188076
103.3675872568062
108.07045379195716
117.85385389188217
136.00143158202644
165.5493421904872
165.5492841024282
136.00137145973557
117.85381336210055
108.0704112365712
103.36754966027914
101.31375454648521
100.48459645017107
100.17061141447388
100.0577972502438
100.01899527461437
100.00613400584055
100.00200641190924
100.00072027165643
100.00033137647388
100.00021956667022
100.00019701533444
100.00022318765335
100.00034026543207
100.0007376459579
100.0020366921854
100.00618195069228
100.01906465712942
100.05788975623145
100.17072550941265
100.48472925818179
101.31390248437651
103.36770599816806
108.07058135521747
117.85397611227724
136.00158402443205
165.5495755878716
165.54922995312813
136.0013848452511
117.85383037662477
108.07043374105461
103.36759528452802
101.31383134557684
100.48471788513356
100.17078637760298
100.05802982449832
100.01928105386018
100.0064629574142
100.00236596115174
100.00109879932039
100.0007202721543
100.00061348921409
100.0005931320499
100.00062019687996
100.00073764610143
100.00113521755766
100.00243439715418
100.0065797677077
100.01946256932489
100.05828772336727
100.17112373874835
100.48512786632212
101.31430206471532
103.36810495552812
108.07098600809066
117.85440123499188
136.00207917849374
165.55033666537952
165.54926446496523
136.00142922682846
117.8538657850683
108.07055415480816
103.36780020840288
101.31417700197187
100.485234924428
100.17149379674713
100.05892148496807
100.0203267901483
100.00762055747516
100.0035941314444
100.0023659611507
100.00200641381385
100.00190783873077
100.00189066848283
100.00191886429494
100.0020366944082
100.00243439940836
100.0037336387617
100.00787904591772
100.02076187857188
100.05958701172884
100.17242296750346
100.48642701549635
101.31560104725563
103.36940962980157
108.07229771335197
117.85577251561692
136.00367551382445
165.55278629943015
165.54931961784044
136.0015636687652
117.854141319421
108.07109119126625
103.36872803038094
101.31563289014652
100.48730538668339
100.17418452679733
100.06214810360497
100.02395249961957
100.01150315632243
100.00762055493811
100.00646296465315
100.00613401186547
100.00604726298425
100.00603421805795
100.00606373065554
100.00618195149244
100.00657976936522
100.00787904405534
100.01202446611232
100.02490730508667
100.06373254503144
100.17656876659555
100.4905737816853
101.3197501036335
103.37357156734238
108.0765116297889
117.86018543986147
136.00883886072882
165.5606248718716
165.549588660754
136.002131827331
117.85542832313284
108.07344639707061
103.37264406387337
101.32145350002392
100.49513340956365
100.1838184661116
100.07316736175761
100.03588347754805
100.02395249600823
100.02032678734741
100.01928102583288
100.01899526173027
100.01892348565882
100.01891516248351
100.01894604844233
100.01906464444399
100.01946255938385
100.0207618624489
100.0249073028996
100.03779017266443
100.07661554937707
100.18945236298084
100.50345975403837
101.33264813285
103.38651059598178
108.08962420628768
117.87395274307994
136.02499199099464
165.58501286317997
165.55092389547082
136.00503054204006
117.86111467802071
108.08340320874699
103.38821113427367
101.34326039839102
100.52280653010322
100.21614514701658
100.10863361252031
100.0731675667287
100.06214814717237
100.0589215649752
100.05802996692496
100.05779740687146
100.05774228722997
100.05773875966472
100.05777091644376
100.05788983408459
100.05828783296268
100.05958716404717
100.06373263699184
100.07661565628806
100.11544160719421
100.22828075116986
100.54229709063158
101.37152294427202
103.4255342389485
108.12921826916002
117.91565412713871
136.0740702633738
165.65839207051664
165.556700084347
136.017550181967
117.88468708389064
108.12260814210416
103.44586720564392
101.41913385405309
100.61371073367587
100.31748539933027
100.2161449558374
100.18381867760993
100.1741847786916
100.17149413419297
100.1707868289142
100.17061147796925
100.17057263608253
100.17057341599318
100.17060666166242
100.17072582938098
100.17112389594456
100.1724232689442
100.17656889916056
100.18945254132143
100.22828086721458
100.34112914914391
100.65518168797344
101.48454346897809
103.53907220430766
108.24465207046734
118.03776381241205
136.21841725623267
165.87162175720638
165.58176083759483
136.06897201075844
117.9764245475675
108.26555975260062
103.64243522136506
101.66199116641829
100.88979637118042
100.61371040552248
100.52280653925546
100.49513427154866
100.48730619954668
100.48523476528844
100.48471831470466
100.48459685400454
100.48457215254828
100.4845763193172
100.48461036249704
100.48472975764825
100.48512792880595
100.48642749790234
100.49057380617405
100.5034600152635
100.5422979025993
100.65518175818296
100.96936652273973
101.79921353843191
103.85548934693976
108.56717647479803
118.38069243765665
136.62542649562585
166.4640824204393
165.68244341001167
136.26470502803122
118.30366941745545
108.74037892801037
104.25164745323106
102.37154985730743
101.66199062802104
101.41913403732217
101.34326058152874
101.3214527898815
101.31563320347058
101.31417732528246
101.31383280652032
101.31375578157422
101.31374186490041
101.3137486524361
101.31378322959611
101.3139027844785
101.31430111101031
101.31560147344719
101.31975078088557
101.33264760364887
101.37152362892331
101.48454433287421
101.79921354814653
102.63075447408741
104.69281363723606
109.42358703365487
119.29701841975503
137.71705744736727
168.02331102450998
166.0541795471584
136.94189466710714
119.35398941917562
110.15337412099662
105.94836614158258
104.25164865416403
103.64243513648452
103.44586155914068
103.38820756371268
103.37264431924292
103.36872955710771
103.3678013183567
103.36759251281462
103.36754833292547
103.36754147138086
103.36754981527012
103.36758498939142
103.36770495237698
103.36810431074922
103.36940804497195
103.37356949774998
103.38650913161867
103.42553519017947
103.53907205858569
103.85548774092584
104.69281167179301
106.7734555599164
111.56152263527335
121.60165929366735
140.46963721084694
171.8596024820643
167.28610683444984
139.019876582685
122.32409905231184
113.86177981728456
110.15339474317645
108.7403836712763
108.26556868221519
108.1226166828109
108.083413872668
108.07346716281035
108.07109985358998
108.07056504850179
108.07044955232394
108.07042630365115
108.07042472143087
108.07043399731013
108.07046952935235
108.07059030438724
108.07099374647417
108.07231222408438
108.07652361989356
108.08963371689687
108.12923317431705
108.24466402568
108.56718556776751
109.42359410966918
111.56153243345547
116.51264014873587
126.98515389922612
146.89934093141682
180.54012336913289
170.85365058235465
144.53784834088262
129.57507225305017
122.32408557656542
119.3540092077941
118.30368531063218
117.9764450124876
117.88470919649619
117.86111326204866
117.8554514998273
117.85416629772014
117.85388907451754
117.85383205163006
117.85382013805518
117.85382079868529
117.85383155757398
117.85386879716336
117.85399488973849
117.85441525200463
117.85579171454414
117.86019923979696
117.87396160439778
117.91567460993443
118.03777843432206
118.38070910803738
119.29702742476245
121.60166877425833
126.98516202560049
138.48182726711804
160.56956877801784
198.26404089743275
179.65588197043422
156.9626993524593
144.53783542114945
139.01986996247464
136.94192722101857
136.26474168575098
136.0689648021968
136.0175526972349
136.005045378316
136.00218151619873
136.00155667904605
136.00142530507046
136.0013988484053
136.00139572989048
136.00139787851737
136.00140987868966
136.00145215596524
136.00159856756989
136.00208836480724
136.003693363435
136.00884742049251
136.02499075155745
136.07410116910992
136.21843100428006
136.62544035051525
137.7170649756387
140.469640070577
146.8993576787487
160.56956855541068
186.5336544075774
230.27375950142297
198.30511336199623
179.65586064735052
170.85364291512724
167.2861100853301
166.0541711063913
165.6824462000085
165.58176838466179
165.5567183051636
165.5508847116117
165.54959519077124
165.5493240571223
165.54926925316963
165.54925818110675
165.54925684986546
165.54926261397028
165.54928177222212
165.54934948736752
165.549576379898
165.55032930518217
165.55278710658754
165.56062973025425
165.58499725108769
165.6584088047258
165.87162580217472
166.46407970467735
168.02330896878493
171.85959407478123
180.5401243485343
198.2640253190266
230.27374317382208
279.0308680917846
