# vtk DataFile Version 2.0
Unstructured Grid Example
ASCII
DATASET UNSTRUCTURED_GRID

POINTS 961 float
0.150000006 -0.00839745998 0
0.146666661 -0.00839745998 0
0.143333331 -0.00839745998 0
0.140000001 -0.00839745998 0
0.13666667 -0.00839745998 0
0.13333334 -0.00839745998 0
0.129999995 -0.00839745998 0
0.126666665 -0.00839745998 0
0.123333335 -0.00839745998 0
0.119999997 -0.00839745998 0
0.116666667 -0.00839745998 0
0.113333337 -0.00839745998 0
0.109999999 -0.00839745998 0
0.106666669 -0.00839745998 0
0.103333332 -0.00839745998 0
0.100000001 -0.00839745998 0
0.0966666639 -0.00839745998 0
0.0933333337 -0.00839745998 0
0.0900000036 -0.00839745998 0
0.086666666 -0.00839745998 0
0.0833333358 -0.00839745998 0
0.0799999982 -0.00839745998 0
0.0766666681 -0.00839745998 0
0.0733333305 -0.00839745998 0
0.0700000003 -0.00839745998 0
0.0666666701 -0.00839745998 0
0.0633333325 -0.00839745998 0
0.0599999987 -0.00839745998 0
0.0566666685 -0.00839745998 0
0.0533333346 -0.00839745998 0
0.0500000007 -0.00839745998 0
0.148333326 -0.0112842107 0
0.144999996 -0.0112842107 0
0.141666666 -0.0112842107 0
0.138333336 -0.0112842107 0
0.135000005 -0.0112842107 0
0.13166666 -0.0112842107 0
0.12833333 -0.0112842107 0
0.125 -0.0112842107 0
0.12166667 -0.0112842107 0
0.118333332 -0.0112842107 0
0.115000002 -0.0112842107 0
0.111666664 -0.0112842107 0
0.108333334 -0.0112842107 0
0.104999997 -0.0112842107 0
0.101666667 -0.0112842107 0
0.0983333364 -0.0112842107 0
0.0949999988 -0.0112842107 0
0.0916666687 -0.0112842107 0
0.088333331 -0.0112842107 0
0.0850000009 -0.0112842107 0
0.0816666633 -0.0112842107 0
0.0783333331 -0.0112842107 0
0.075000003 -0.0112842107 0
0.0716666654 -0.0112842107 0
0.0683333352 -0.0112842107 0
0.0649999976 -0.0112842107 0
0.0616666675 -0.0112842107 0
0.0583333336 -0.0112842107 0
0.0549999997 -0.0112842107 0
0.0516666658 -0.0112842107 0
0.0483333319 -0.0112842107 0
0.146666661 -0.0141709624 0
0.143333331 -0.0141709624 0
0.140000001 -0.0141709624 0
0.13666667 -0.0141709624 0
0.13333334 -0.0141709624 0
0.129999995 -0.0141709624 0
0.126666665 -0.0141709624 0
0.123333335 -0.0141709624 0
0.119999997 -0.0141709624 0
0.116666667 -0.0141709624 0
0.113333337 -0.0141709624 0
0.109999999 -0.0141709624 0
0.106666669 -0.0141709624 0
0.103333332 -0.0141709624 0
0.100000001 -0.0141709624 0
0.0966666639 -0.0141709624 0
0.0933333337 -0.0141709624 0
0.0900000036 -0.0141709624 0
0.086666666 -0.0141709624 0
0.0833333358 -0.0141709624 0
0.0799999982 -0.0141709624 0
0.0766666681 -0.0141709624 0
0.0733333305 -0.0141709624 0
0.0700000003 -0.0141709624 0
0.0666666701 -0.0141709624 0
0.0633333325 -0.0141709624 0
0.0599999987 -0.0141709624 0
0.0566666685 -0.0141709624 0
0.0533333346 -0.0141709624 0
0.0500000007 -0.0141709624 0
0.0466666669 -0.0141709624 0
0.144999996 -0.0170577131 0
0.141666666 -0.0170577131 0
0.138333336 -0.0170577131 0
0.135000005 -0.0170577131 0
0.13166666 -0.0170577131 0
0.12833333 -0.0170577131 0
0.125 -0.0170577131 0
0.12166667 -0.0170577131 0
0.118333332 -0.0170577131 0
0.115000002 -0.0170577131 0
0.111666664 -0.0170577131 0
0.108333334 -0.0170577131 0
0.104999997 -0.0170577131 0
0.101666667 -0.0170577131 0
0.0983333364 -0.0170577131 0
0.0949999988 -0.0170577131 0
0.0916666687 -0.0170577131 0
0.088333331 -0.0170577131 0
0.0850000009 -0.0170577131 0
0.0816666633 -0.0170577131 0
0.0783333331 -0.0170577131 0
0.075000003 -0.0170577131 0
0.0716666654 -0.0170577131 0
0.0683333352 -0.0170577131 0
0.0649999976 -0.0170577131 0
0.0616666675 -0.0170577131 0
0.0583333336 -0.0170577131 0
0.0549999997 -0.0170577131 0
0.0516666658 -0.0170577131 0
0.0483333319 -0.0170577131 0
0.0450000018 -0.0170577131 0
0.143333331 -0.0199444648 0
0.140000001 -0.0199444648 0
0.13666667 -0.0199444648 0
0.13333334 -0.0199444648 0
0.129999995 -0.0199444648 0
0.126666665 -0.0199444648 0
0.123333335 -0.0199444648 0
0.119999997 -0.0199444648 0
0.116666667 -0.0199444648 0
0.113333337 -0.0199444648 0
0.109999999 -0.0199444648 0
0.106666669 -0.0199444648 0
0.103333332 -0.0199444648 0
0.100000001 -0.0199444648 0
0.0966666639 -0.0199444648 0
0.0933333337 -0.0199444648 0
0.0900000036 -0.0199444648 0
0.086666666 -0.0199444648 0
0.0833333358 -0.0199444648 0
0.0799999982 -0.0199444648 0
0.0766666681 -0.0199444648 0
0.0733333305 -0.0199444648 0
0.0700000003 -0.0199444648 0
0.0666666701 -0.0199444648 0
0.0633333325 -0.0199444648 0
0.0599999987 -0.0199444648 0
0.0566666685 -0.0199444648 0
0.0533333346 -0.0199444648 0
0.0500000007 -0.0199444648 0
0.0466666669 -0.0199444648 0
0.043333333 -0.0199444648 0
0.141666666 -0.0228312165 0
0.138333336 -0.0228312165 0
0.135000005 -0.0228312165 0
0.13166666 -0.0228312165 0
0.12833333 -0.0228312165 0
0.125 -0.0228312165 0
0.12166667 -0.0228312165 0
0.118333332 -0.0228312165 0
0.115000002 -0.0228312165 0
0.111666664 -0.0228312165 0
0.108333334 -0.0228312165 0
0.104999997 -0.0228312165 0
0.101666667 -0.0228312165 0
0.0983333364 -0.0228312165 0
0.0949999988 -0.0228312165 0
0.0916666687 -0.0228312165 0
0.088333331 -0.0228312165 0
0.0850000009 -0.0228312165 0
0.0816666633 -0.0228312165 0
0.0783333331 -0.0228312165 0
0.075000003 -0.0228312165 0
0.0716666654 -0.0228312165 0
0.0683333352 -0.0228312165 0
0.0649999976 -0.0228312165 0
0.0616666675 -0.0228312165 0
0.0583333336 -0.0228312165 0
0.0549999997 -0.0228312165 0
0.0516666658 -0.0228312165 0
0.0483333319 -0.0228312165 0
0.0450000018 -0.0228312165 0
0.0416666679 -0.0228312165 0
0.140000001 -0.0257179681 0
0.13666667 -0.0257179681 0
0.13333334 -0.0257179681 0
0.129999995 -0.0257179681 0
0.126666665 -0.0257179681 0
0.123333335 -0.0257179681 0
0.119999997 -0.0257179681 0
0.116666667 -0.0257179681 0
0.113333337 -0.0257179681 0
0.109999999 -0.0257179681 0
0.106666669 -0.0257179681 0
0.103333332 -0.0257179681 0
0.100000001 -0.0257179681 0
0.0966666639 -0.0257179681 0
0.0933333337 -0.0257179681 0
0.0900000036 -0.0257179681 0
0.086666666 -0.0257179681 0
0.0833333358 -0.0257179681 0
0.0799999982 -0.0257179681 0
0.0766666681 -0.0257179681 0
0.0733333305 -0.0257179681 0
0.0700000003 -0.0257179681 0
0.0666666701 -0.0257179681 0
0.0633333325 -0.0257179681 0
0.0599999987 -0.0257179681 0
0.0566666685 -0.0257179681 0
0.0533333346 -0.0257179681 0
0.0500000007 -0.0257179681 0
0.0466666669 -0.0257179681 0
0.043333333 -0.0257179681 0
0.0399999991 -0.0257179681 0
0.138333336 -0.0286047198 0
0.135000005 -0.0286047198 0
0.13166666 -0.0286047198 0
0.12833333 -0.0286047198 0
0.125 -0.0286047198 0
0.12166667 -0.0286047198 0
0.118333332 -0.0286047198 0
0.115000002 -0.0286047198 0
0.111666664 -0.0286047198 0
0.108333334 -0.0286047198 0
0.104999997 -0.0286047198 0
0.101666667 -0.0286047198 0
0.0983333364 -0.0286047198 0
0.0949999988 -0.0286047198 0
0.0916666687 -0.0286047198 0
0.088333331 -0.0286047198 0
0.0850000009 -0.0286047198 0
0.0816666633 -0.0286047198 0
0.0783333331 -0.0286047198 0
0.075000003 -0.0286047198 0
0.0716666654 -0.0286047198 0
0.0683333352 -0.0286047198 0
0.0649999976 -0.0286047198 0
0.0616666675 -0.0286047198 0
0.0583333336 -0.0286047198 0
0.0549999997 -0.0286047198 0
0.0516666658 -0.0286047198 0
0.0483333319 -0.0286047198 0
0.0450000018 -0.0286047198 0
0.0416666679 -0.0286047198 0
0.038333334 -0.0286047198 0
0.13666667 -0.0314914696 0
0.13333334 -0.0314914696 0
0.129999995 -0.0314914696 0
0.126666665 -0.0314914696 0
0.123333335 -0.0314914696 0
0.119999997 -0.0314914696 0
0.116666667 -0.0314914696 0
0.113333337 -0.0314914696 0
0.109999999 -0.0314914696 0
0.106666669 -0.0314914696 0
0.103333332 -0.0314914696 0
0.100000001 -0.0314914696 0
0.0966666639 -0.0314914696 0
0.0933333337 -0.0314914696 0
0.0900000036 -0.0314914696 0
0.086666666 -0.0314914696 0
0.0833333358 -0.0314914696 0
0.0799999982 -0.0314914696 0
0.0766666681 -0.0314914696 0
0.0733333305 -0.0314914696 0
0.0700000003 -0.0314914696 0
0.0666666701 -0.0314914696 0
0.0633333325 -0.0314914696 0
0.0599999987 -0.0314914696 0
0.0566666685 -0.0314914696 0
0.0533333346 -0.0314914696 0
0.0500000007 -0.0314914696 0
0.0466666669 -0.0314914696 0
0.043333333 -0.0314914696 0
0.0399999991 -0.0314914696 0
0.0366666652 -0.0314914696 0
0.135000005 -0.0343782231 0
0.13166666 -0.0343782231 0
0.12833333 -0.0343782231 0
0.125 -0.0343782231 0
0.12166667 -0.0343782231 0
0.118333332 -0.0343782231 0
0.115000002 -0.0343782231 0
0.111666664 -0.0343782231 0
0.108333334 -0.0343782231 0
0.104999997 -0.0343782231 0
0.101666667 -0.0343782231 0
0.0983333364 -0.0343782231 0
0.0949999988 -0.0343782231 0
0.0916666687 -0.0343782231 0
0.088333331 -0.0343782231 0
0.0850000009 -0.0343782231 0
0.0816666633 -0.0343782231 0
0.0783333331 -0.0343782231 0
0.075000003 -0.0343782231 0
0.0716666654 -0.0343782231 0
0.0683333352 -0.0343782231 0
0.0649999976 -0.0343782231 0
0.0616666675 -0.0343782231 0
0.0583333336 -0.0343782231 0
0.0549999997 -0.0343782231 0
0.0516666658 -0.0343782231 0
0.0483333319 -0.0343782231 0
0.0450000018 -0.0343782231 0
0.0416666679 -0.0343782231 0
0.038333334 -0.0343782231 0
0.0350000001 -0.0343782231 0
0.13333334 -0.0372649729 0
0.129999995 -0.0372649729 0
0.126666665 -0.0372649729 0
0.123333335 -0.0372649729 0
0.119999997 -0.0372649729 0
0.116666667 -0.0372649729 0
0.113333337 -0.0372649729 0
0.109999999 -0.0372649729 0
0.106666669 -0.0372649729 0
0.103333332 -0.0372649729 0
0.100000001 -0.0372649729 0
0.0966666639 -0.0372649729 0
0.0933333337 -0.0372649729 0
0.0900000036 -0.0372649729 0
0.086666666 -0.0372649729 0
0.0833333358 -0.0372649729 0
0.0799999982 -0.0372649729 0
0.0766666681 -0.0372649729 0
0.0733333305 -0.0372649729 0
0.0700000003 -0.0372649729 0
0.0666666701 -0.0372649729 0
0.0633333325 -0.0372649729 0
0.0599999987 -0.0372649729 0
0.0566666685 -0.0372649729 0
0.0533333346 -0.0372649729 0
0.0500000007 -0.0372649729 0
0.0466666669 -0.0372649729 0
0.043333333 -0.0372649729 0
0.0399999991 -0.0372649729 0
0.0366666652 -0.0372649729 0
0.0333333351 -0.0372649729 0
0.13166666 -0.0401517227 0
0.12833333 -0.0401517227 0
0.125 -0.0401517227 0
0.12166667 -0.0401517227 0
0.118333332 -0.0401517227 0
0.115000002 -0.0401517227 0
0.111666664 -0.0401517227 0
[...]
POINT_DATA 961
SCALARS Temp float 1
LOOKUP_TABLE default
337.951026588993
288.0609830210672
250.13794380454422
224.16016376854574
207.73509430306606
198.10594198690438
192.84526067448363
190.15161319351617
188.85114637059812
188.25563624763052
187.9955456873955
187.88665527118457
187.84275699661214
187.82564939210894
187.81918374328316
187.81680646784852
187.8159639024888
187.8157065237544
187.81577299315853
187.81637479102554
187.81866774013056
187.82660418055855
187.85246340973438
187.93155748171216
188.15696370843673
188.75091272380493
190.18701012503757
193.35169167487456
199.6761424402201
211.11801272789884
230.23531977504646
288.0609995765103
241.42272997405183
208.1946707966629
186.20410578559893
172.7233565159701
165.0387454977656
160.94489805874935
158.8950489471846
157.924664808683
157.48787891191554
157.29995553881895
157.22230464880883
157.19136053021057
157.17942421816966
157.1749528888326
157.17332811505813
157.17276988937186
157.17265686852167
157.17293011895364
157.1741686940223
157.17859375652054
157.19335949126344
157.23973163165024
157.37596187409355
157.74766319100934
158.6826213292329
160.83553784574806
165.34715903746155
173.91605386335755
188.65302149867722
211.11803123507005
250.13790499332237
208.19465606830946
178.84606331190992
159.74944274228267
148.18713021774118
141.65436249857163
138.19480810061123
136.46877085124203
135.65311532997808
135.28613172900626
135.1281607692066
135.06281348474536
135.0367337626708
135.02665743886408
135.02287855393203
135.02150719441855
135.0210579014948
135.02105945326218
135.0216454298184
135.02392764511438
135.03173874544623
135.05683941376606
135.13256521544338
135.3457095048699
135.90157708469647
137.23568913786005
140.16433883832906
146.01478684976388
156.61032600446322
173.91604421208828
199.67614977674896
224.16012211566405
186.20408865709567
159.74944749995257
142.55629733662624
132.13330444953706
126.2259999220867
123.08430795399339
121.50923539026856
120.76116585439436
120.42292941797929
120.2766524141079
120.21588353261899
120.19153678920891
120.1820969851065
120.17854910320199
120.17726784544531
120.17688443421096
120.17703150353906
120.1780978846719
120.18195103865536
120.19461643031298
120.23372666762349
120.34686115158073
120.65162845573761
121.41145281185158
123.15443214700714
126.81449683930707
133.82135577544085
146.01479905538298
165.347171105639
193.35168356447213
207.7350644775589
172.72334569639142
148.1871272358209
132.13334290752607
122.33195157781296
116.73865992472184
113.74507177789563
112.23576328402537
111.51540958157345
111.18833504399238
111.04638127799387
110.98723124536053
110.96347340517721
110.95424388138778
110.95077151186042
110.9495304660037
110.94921485191958
110.94957212267838
110.95132624317301
110.95732459035207
110.97625642198123
111.03235466023908
111.18788727245932
111.58921648462143
112.54800241709864
114.65880351035922
118.92437142939374
126.8144917610109
140.16433548837816
160.83553520795078
190.18701660205178
198.10591578903276
165.03876713218708
141.6543908020557
126.22597708823366
116.73865175209589
111.29237071498355
108.36349359732783
106.88117963910004
106.17157835091831
105.84861802203143
105.70818721778711
105.6495842191826
105.62601810863306
105.61685611765184
105.61341270847069
105.61220384243343
105.61197566450903
105.61261906199658
105.6152710205339
105.62391600861159
105.6501125549045
105.72462249622808
105.92289970567057
106.41440792161055
107.54477870850822
109.94812728000926
114.65880213898001
123.15443312157637
137.2356956595212
158.6826027152492
188.75090454800562
192.8452627076997
160.94491234434213
138.1948408715653
123.08428082007738
113.74506295308674
108.36349197659918
105.46134349147857
103.98955936432195
103.28393515187983
102.9624260685785
102.82250963844818
102.76408448332218
102.7405794389191
102.73143960242133
102.72801219378434
102.72683936296004
102.72672523275334
102.72772688157582
102.731442235005
102.74303379634746
102.77679082418108
102.86913608588189
103.10580371199785
103.67218975358224
104.9341150044246
107.54477698609894
112.54799814608718
121.41144598558974
135.90157400353496
157.7476604918946
188.1569729275856
190.15162395919404
158.89506852846864
136.46872545828998
121.50921305159945
112.23576049691694
106.88118395028604
103.98955852407323
102.52170272539222
101.817490083576
101.49647509499297
101.35672619766683
101.29835720206933
101.27487143090647
101.26574122987184
101.26232874959446
101.2611994504961
101.26122236903628
101.26263263744629
101.26748827009153
101.28203573510953
101.32285833129129
101.43067101909364
101.69815007827226
102.32007229820663
103.67218906765207
106.41440709976914
111.58921696473614
120.651629035954
135.34569770744406
157.37594379771096
187.93154783050255
188.85114894710057
157.92469257785984
135.65307273521782
120.76115049076267
111.51540994428723
106.17157437729922
103.28393475863103
101.81749194292189
101.113764489527
100.79291210520326
100.65321634850696
100.59486489722242
100.57138574904431
100.56226198128546
100.55886589661868
100.55778718479958
100.55796105848985
100.5597948559336
100.56575711515404
100.5829783023772
100.62973761651841
100.74959046197446
101.0392537601673
101.69815064596911
103.1058035490096
105.9228989519495
111.18788639701587
120.3468577587866
135.13256844122674
157.23973732800877
187.85248156511676
188.25566406714265
157.48781624035394
135.28611224612416
120.42292738543695
111.18834386295084
105.84861773952127
102.96242824827893
101.49647497768004
100.79291193254221
100.47211113785252
100.33243233927695
100.2740864904633
100.25061064617665
100.24149309887125
100.23811507870249
100.23709026692319
100.23741580200394
100.23964819573493
100.24658217712465
100.26598675500328
100.31724216597118
100.44553728331726
100.74959014889266
101.4306708255333
102.86913608168861
105.72462238284298
111.03235489678384
120.23371435965008
135.05682682261798
157.19334372869295
187.82659494865115
187.9956010664912
157.29990873473514
135.12815248038842
120.27665709583987
111.04637668115645
105.70818842722568
102.82251280704435
101.35672624015879
100.65321671032797
100.33243232583203
100.19275889261158
100.13441523529718
100.1109420680729
100.1018310474663
100.09847185636198
100.09749974326309
100.09796415415657
100.10053734905256
100.10824455585721
100.12926211349728
100.18359587846875
100.31724235444199
100.62973771944841
101.32285800201534
102.77679019654126
105.65011177961797
110.97625422756182
120.19461528474174
135.03174289102535
157.1786019717804
187.8186546748219
187.8866003279231
157.22227739481824
135.06281436220337
120.21589464201048
110.98722728846643
105.6495862681285
102.76408315035047
101.2983574530373
100.59486426957432
100.27408650244962
100.13441534247276
100.07607338140339
100.05260311111581
100.0434989898136
100.04015805861438
100.03923325035485
100.03981368947237
100.04265185657265
100.05091768818178
100.07301633749145
100.12926223772757
100.26598686833583
100.58297817086527
101.2820363369879
102.74303498867215
105.62391905834244
110.95732178250043
120.1819468895817
135.0239284700997
157.1741698079379
187.81638848942984
187.84273515830384
157.1913602421611
135.0367511030058
120.19152959111172
110.96347514773137
105.62602422482233
102.74057907060005
101.27487258326286
100.5713853999013
100.25061079091579
100.11094200366917
100.05260307904038
100.02913690840121
100.02004041747914
100.01671640924421
100.01583094964609
100.01650018968475
100.01952625172898
100.02815951994432
100.05091761996043
100.1082445285357
100.2465823384394
100.56575663512862
101.26748805610384
102.73144173455263
105.6152698741995
110.95132521199977
120.17809667519997
135.02165081750587
157.17290833700298
187.81577599799633
187.8256319237263
157.17942600515323
135.0266785838841
120.18208924314544
110.95424596533184
105.6168529105832
102.73143965176187
101.26574041792558
100.56226177420442
100.24149333602504
100.10183095729782
100.04349897925108
100.02004041132757
100.0109538062137
100.00764591943776
100.00679168515514
100.00752385630706
100.01067206085783
100.01952624288771
100.04265187368982
100.10053732973122
100.23964829284091
100.55979481303957
101.2626332541252
102.72772827847912
105.61261756195323
110.94956966424915
120.1770279755326
135.02105991786965
157.17266048318317
187.81570623189398
187.81918461955772
157.17497171265885
135.02286771921612
120.17854916209669
110.95078043834374
105.61341164513469
102.72801443919273
101.2623284715695
100.5588658663433
100.2381150297663
100.09847184709731
100.0401580806402
100.01671640317865
100.00764592377105
100.0043559926465
100.00352721814807
100.00430196799729
100.00752385199058
100.01650017569595
100.0398136635791
100.09796416093731
100.23741573251768
100.55796062274898
101.26122215082343
102.72672458624746
105.61197519084628
110.94921434341543
120.17688412547398
135.02104521199809
157.1727664818143
187.81595655429354
187.81680633774744
157.17334826038842
135.0214955191012
120.17726924461445
110.94952405586498
105.6122034496333
102.72683748989688
101.26119947815829
100.55778740606392
100.23709019482267
100.09749975171472
100.03923319654888
100.01583094992202
100.00679167792086
100.0035272181039
100.00272278796592
100.00352721968362
100.00679168032731
100.01583096570168
100.03923322050173
100.09749971640107
100.2370903833314
100.55778717164976
101.26120015833182
102.72683856500625
105.61220249649328
110.94952916202794
120.17726457896143
135.0215116077029
157.17331954996533
187.8168094585166
187.81598260663185
157.17274657177933
135.02106266891877
120.17689764453829
110.94921249986497
105.61197941619812
102.726724620229
101.26122289909205
100.55796061900868
100.23741591125211
100.09796426178279
100.03981365890502
100.01650020763006
100.0075238534363
100.00430196947255
100.00352722095893
100.00435599532474
100.00764591489077
100.01671640825396
100.04015804089651
100.09847177036059
100.23811502126583
100.55886549561195
101.26232840760389
102.72801211738425
105.61341257077228
110.9507719086545
120.17853677398476
135.02287622880226
157.17493817563556
187.81917566485424
187.8157370287686
157.1726393924004
135.02106788089986
120.17701930334428
110.94957121749754
105.61261527813261
102.7277267933201
101.26263369273042
100.55979437504837
100.23964836945306
100.1005372709142
100.04265183501705
100.01952623668566
100.01067205670056
100.00752385916599
100.0067916864624
100.00764592038361
100.01095381224211
100.02004042018682
100.04349896231165
100.10183103247157
100.24149321541394
100.56226206228979
101.26574086775379
102.73143899529195
105.61685524731931
110.95424185342826
120.1820963571893
135.02665035116286
157.17941592172994
187.82565020834878
187.8157414735283
157.17292084971632
135.02166026659313
120.17808578188294
110.95132778721297
105.61526721620027
102.73144186669722
101.2674873705088
100.56575673476316
100.24658244006915
100.1082444598103
100.05091767364618
100.02815951163224
100.01952624711551
100.01650018897307
100.0158309489554
100.0167164068076
100.0200404231038
100.02913689925636
100.05260306799875
100.11094204854419
100.25061074180103
100.5713856265719
101.27487195187207
102.7405805677249
105.62602109881745
110.9634703415393
120.19153845988444
135.03673333390523
157.19136007802575
187.8427662048912
187.81636830279695
157.17418053619815
135.02391322990584
120.1819485548426
110.95731714661434
105.62391607614676
102.74303582309113
101.28203542020876
100.58297835174984
100.26598674102854
100.12926215085162
100.07301632264873
100.05091767649327
100.04265186480748
100.03981369515087
100.0392332511293
100.04015806045774
100.0434989926963
100.05260310237962
100.07607341000111
100.13441528318306
100.2740866123182
100.59486441427347
101.29835697314618
102.76408394804457
105.64958309462914
110.98723018207056
120.21587431782318
135.06280641386348
157.22229500066894
187.88665529917932
187.81866318497111
157.17861050593126
135.0317237986001
120.1946185246417
110.97624923035977
105.65011203993896
102.776788826566
101.32285824986104
100.62973796233773
100.3172422056313
100.1835960103879
100.12926210413522
100.10824454662891
100.10053734531022
100.09796414750667
100.09749974439585
100.09847186611783
100.10183104035175
100.1109420669137
100.13441525230566
100.1927588613838
100.33243240313912
100.65321634148202
101.35672683150828
102.82251085399672
105.70818542581554
111.04638194328733
120.2766477854243
135.12816027682132
157.2999553204168
187.99554239953937
187.82659880743483
157.19331678641655
135.05682839341108
120.23370638691937
111.03234972225654
105.72462405496319
102.86913435003311
101.4306712479899
100.74958990096833
100.44553710360206
100.31724213158465
100.26598672058523
100.24658219871905
100.2396482281405
100.2374158068226
100.23709026645469
100.23811507826927
100.24149309105306
100.25061065790013
100.27408646512714
100.3324323893336
100.47211117294077
100.79291167011525
101.49647531369102
102.96242662666681
105.84862000639012
111.1883337145153
120.42292840296358
135.28613905488695
157.48788922217463
188.25565323420577
187.85250773032394
157.23972704758816
135.13258574964652
120.34685771536437
111.18789203038993
105.9228993802119
103.10580588486272
101.69815233414985
101.03925429690024
100.74959146845204
100.62973828582953
100.58297891633624
100.56575771920508
100.55979543796983
100.55796168069257
100.55778783768069
100.55886649203642
100.56226261227033
100.5713863699394
100.59486546880633
100.65321694705943
100.7929124222448
101.11376510373263
101.81749104561788
103.28393303424127
106.17157682853016
111.5154041006947
120.76115610816674
135.65310699713666
157.92463854280228
188.85112917577337
187.93154053179884
157.37596663850425
135.34569870677194
120.65162930311207
111.58922541900702
106.41440750483399
103.672192303932
102.32007365209847
101.6981512608811
101.43067234298528
101.32285958050167
101.28203712889677
101.26748974672995
101.26263399532846
101.26122369679626
101.26120077150733
101.26233006517086
101.265742568662
101.2748727547604
101.29835858384371
101.35672747121438
101.49647621684888
101.8174913825924
102.5217028718494
103.98956053779297
106.8811787928028
112.23576138294891
121.50922931545185
136.46876864547184
158.89504266732845
190.1516099541518
188.1569565640595
157.74767866036757
135.90156937458528
121.41145244873962
112.54799722944396
107.54478046213569
104.93411789661691
103.67219069097222
103.10580574197158
102.86913762255257
102.7767921814004
102.7430350992954
102.73144344383299
102.7277282516357
102.72672671672007
102.72684064991805
102.72801362749138
102.73144098912105
102.74058075959097
102.76408587864944
102.82251093365065
102.96242754504637
103.28393601561203
103.98956038335021
105.46134723250948
108.36349221617488
113.74507128295318
123.08430826397615
138.19480470662745
160.9448942395669
192.84526481386726
188.75091187572318
158.6825877463874
137.2356848862179
123.15443891319012
114.6587977142798
109.94812913086564
107.54477817807692
106.41440745173313
105.92289959792433
105.72462224238119
105.65011274427314
105.62391653676025
105.61527118148521
105.6126191132228
105.61197567532052
105.61220388438792
105.6134127963157
105.61685622292038
105.62601837448038
105.64958423347778
105.7081873373178
105.84861835571616
106.17157825436685
106.88118092509657
108.36349188102626
111.29237343314814
116.73866489785458
126.22600760349133
141.65437216990816
165.03875053280913
198.10591914839742
190.1870159277584
160.83551108675329
140.16433172314956
126.81447968388147
118.92436823765144
114.65880057172978
112.54799663761662
111.58921292547909
111.18788322740906
111.0323501754867
110.97625175409577
110.95731959904509
110.9513217290028
110.94956791623795
110.94921013911112
110.9495261645161
110.95076706169758
110.95423928268553
110.96346895433027
110.98722679486941
111.04637688523503
111.18833028959467
111.51540563045621
112.2357607216884
113.745067520291
116.73866096968035
122.33196408033083
132.13331165570412
148.18710426911417
172.72333201820194
207.73507089792025
193.3516930487155
165.3471816387737
146.01482871290924
133.8213682763831
126.81451653401867
123.15444727343183
121.41146747808787
120.65164332310022
120.34687552722197
120.2337420233516
120.19463257206321
120.18196635720446
120.17811290840233
120.17704639113468
120.17689951391317
120.17728296383753
120.17856427584832
120.18211249853695
120.191551699681
120.21589874665871
120.27666775089945
120.42294426793096
120.7611810853337
121.50924869362679
123.08432291723815
126.2260190234106
132.1333296003933
142.55628128194854
159.74942132640987
186.20406337047456
224.1601276679866
199.67615867517847
173.91607487398943
156.61034046399215
146.01480996165012
140.1643605580286
137.23570572021003
135.90159651116738
135.34572840736055
135.13258335126557
135.05685714568602
135.0317556409451
135.02394546968512
135.02166384115773
135.021077017939
135.0210762540225
135.02152522146764
135.02289631016873
135.02667535458215
135.03675178488177
135.06283138267335
135.12817814722564
135.2861503002105
135.65313389149253
136.4687873002435
138.19482656205048
141.65438427567437
148.18711706571284
159.749426553671
178.84603967727685
208.19463292798784
250.1379104607061
211.11803312220016
188.6530446967667
173.91605717384763
165.34717191116192
160.83554561260198
158.68262877742364
157.74767097736193
157.37596900537287
157.23974063121312
157.19336947108235
157.1786023329842
157.17417685633427
157.17293804131714
157.1726653756566
157.1727782903693
157.1733366147969
157.17496186855837
157.17943220674516
157.19136912736235
157.2223132967361
157.2999637796449
157.4878871713927
157.92467228378
158.89505786425877
160.94490905022082
165.03875929019972
172.72333761554282
186.20407472642032
208.19462892742155
241.42268838799012
288.0609188601303
230.2353359511742
211.11800764873308
199.67614749174325
193.3516958903717
190.18700801285567
188.75091430018352
188.15696428420446
187.9315587258584
187.85246412388884
187.82660235060035
187.81866763551184
187.8163751502059
187.815773081474
187.8157072252293
187.81596417485494
187.81680674970846
187.8191832487845
187.82565000186528
187.84275702444594
187.8866547650244
187.99554651050371
188.25563711303676
188.8511462978721
190.15161373947691
192.84526086347438
198.1059152351256
207.73506627368246
224.1601226889132
250.1378896350574
288.0609011585177
337.9506261320705
