# vtk DataFile Version 2.0
Unstructured Grid Example
ASCII
DATASET UNSTRUCTURED_GRID

POINTS 961 float
0.150000006 -0.00839745998 0
0.146666661 -0.00839745998 0
0.143333331 -0.00839745998 0
0.140000001 -0.00839745998 0
0.13666667 -0.00839745998 0
0.13333334 -0.00839745998 0
0.129999995 -0.00839745998 0
0.126666665 -0.00839745998 0
0.123333335 -0.00839745998 0
0.119999997 -0.00839745998 0
0.116666667 -0.00839745998 0
0.113333337 -0.00839745998 0
0.109999999 -0.00839745998 0
0.106666669 -0.00839745998 0
0.103333332 -0.00839745998 0
0.100000001 -0.00839745998 0
0.0966666639 -0.00839745998 0
0.0933333337 -0.00839745998 0
0.0900000036 -0.00839745998 0
0.086666666 -0.00839745998 0
0.0833333358 -0.00839745998 0
0.0799999982 -0.00839745998 0
0.0766666681 -0.00839745998 0
0.0733333305 -0.00839745998 0
0.0700000003 -0.00839745998 0
0.0666666701 -0.00839745998 0
0.0633333325 -0.00839745998 0
0.0599999987 -0.00839745998 0
0.0566666685 -0.00839745998 0
0.0533333346 -0.00839745998 0
0.0500000007 -0.00839745998 0
0.148333326 -0.0112842107 0
0.144999996 -0.0112842107 0
0.141666666 -0.0112842107 0
0.138333336 -0.0112842107 0
0.135000005 -0.0112842107 0
0.13166666 -0.0112842107 0
0.12833333 -0.0112842107 0
0.125 -0.0112842107 0
0.12166667 -0.0112842107 0
0.118333332 -0.0112842107 0
0.115000002 -0.0112842107 0
0.111666664 -0.0112842107 0
0.108333334 -0.0112842107 0
0.104999997 -0.0112842107 0
0.101666667 -0.0112842107 0
0.0983333364 -0.0112842107 0
0.0949999988 -0.0112842107 0
0.0916666687 -0.0112842107 0
0.088333331 -0.0112842107 0
0.0850000009 -0.0112842107 0
0.0816666633 -0.0112842107 0
0.0783333331 -0.0112842107 0
0.075000003 -0.0112842107 0
0.0716666654 -0.0112842107 0
0.0683333352 -0.0112842107 0
0.0649999976 -0.0112842107 0
0.0616666675 -0.0112842107 0
0.0583333336 -0.0112842107 0
0.0549999997 -0.0112842107 0
0.0516666658 -0.0112842107 0
0.0483333319 -0.0112842107 0
0.146666661 -0.0141709624 0
0.143333331 -0.0141709624 0
0.140000001 -0.0141709624 0
0.13666667 -0.0141709624 0
0.13333334 -0.0141709624 0
0.129999995 -0.0141709624 0
0.126666665 -0.0141709624 0
0.123333335 -0.0141709624 0
0.119999997 -0.0141709624 0
0.116666667 -0.0141709624 0
0.113333337 -0.0141709624 0
0.109999999 -0.0141709624 0
0.106666669 -0.0141709624 0
0.103333332 -0.0141709624 0
0.100000001 -0.0141709624 0
0.0966666639 -0.0141709624 0
0.0933333337 -0.0141709624 0
0.0900000036 -0.0141709624 0
0.086666666 -0.0141709624 0
0.0833333358 -0.0141709624 0
0.0799999982 -0.0141709624 0
0.0766666681 -0.0141709624 0
0.0733333305 -0.0141709624 0
0.0700000003 -0.0141709624 0
0.0666666701 -0.0141709624 0
0.0633333325 -0.0141709624 0
0.0599999987 -0.0141709624 0
0.0566666685 -0.0141709624 0
0.0533333346 -0.0141709624 0
0.0500000007 -0.0141709624 0
0.0466666669 -0.0141709624 0
0.144999996 -0.0170577131 0
0.141666666 -0.0170577131 0
0.138333336 -0.0170577131 0
0.135000005 -0.0170577131 0
0.13166666 -0.0170577131 0
0.12833333 -0.0170577131 0
0.125 -0.0170577131 0
0.12166667 -0.0170577131 0
0.118333332 -0.0170577131 0
0.115000002 -0.0170577131 0
0.111666664 -0.0170577131 0
0.108333334 -0.0170577131 0
0.104999997 -0.0170577131 0
0.101666667 -0.0170577131 0
0.0983333364 -0.0170577131 0
0.0949999988 -0.0170577131 0
0.0916666687 -0.0170577131 0
0.088333331 -0.0170577131 0
0.0850000009 -0.0170577131 0
0.0816666633 -0.0170577131 0
0.0783333331 -0.0170577131 0
0.075000003 -0.0170577131 0
0.0716666654 -0.0170577131 0
0.0683333352 -0.0170577131 0
0.0649999976 -0.0170577131 0
0.0616666675 -0.0170577131 0
0.0583333336 -0.0170577131 0
0.0549999997 -0.0170577131 0
0.0516666658 -0.0170577131 0
0.0483333319 -0.0170577131 0
0.0450000018 -0.0170577131 0
0.143333331 -0.0199444648 0
0.140000001 -0.0199444648 0
0.13666667 -0.0199444648 0
0.13333334 -0.0199444648 0
0.129999995 -0.0199444648 0
0.126666665 -0.0199444648 0
0.123333335 -0.0199444648 0
0.119999997 -0.0199444648 0
0.116666667 -0.0199444648 0
0.113333337 -0.0199444648 0
0.109999999 -0.0199444648 0
0.106666669 -0.0199444648 0
0.103333332 -0.0199444648 0
0.100000001 -0.0199444648 0
0.0966666639 -0.0199444648 0
0.0933333337 -0.0199444648 0
0.0900000036 -0.0199444648 0
0.086666666 -0.0199444648 0
0.0833333358 -0.0199444648 0
0.0799999982 -0.0199444648 0
0.0766666681 -0.0199444648 0
0.0733333305 -0.0199444648 0
0.0700000003 -0.0199444648 0
0.0666666701 -0.0199444648 0
0.0633333325 -0.0199444648 0
0.0599999987 -0.0199444648 0
0.0566666685 -0.0199444648 0
0.0533333346 -0.0199444648 0
0.0500000007 -0.0199444648 0
0.0466666669 -0.0199444648 0
0.043333333 -0.0199444648 0
0.141666666 -0.0228312165 0
0.138333336 -0.0228312165 0
0.135000005 -0.0228312165 0
0.13166666 -0.0228312165 0
0.12833333 -0.0228312165 0
0.125 -0.0228312165 0
0.12166667 -0.0228312165 0
0.118333332 -0.0228312165 0
0.115000002 -0.0228312165 0
0.111666664 -0.0228312165 0
0.108333334 -0.0228312165 0
0.104999997 -0.0228312165 0
0.101666667 -0.0228312165 0
0.0983333364 -0.0228312165 0
0.0949999988 -0.0228312165 0
0.0916666687 -0.0228312165 0
0.088333331 -0.0228312165 0
0.0850000009 -0.0228312165 0
0.0816666633 -0.0228312165 0
0.0783333331 -0.0228312165 0
0.075000003 -0.0228312165 0
0.0716666654 -0.0228312165 0
0.0683333352 -0.0228312165 0
0.0649999976 -0.0228312165 0
0.0616666675 -0.0228312165 0
0.0583333336 -0.0228312165 0
0.0549999997 -0.0228312165 0
0.0516666658 -0.0228312165 0
0.0483333319 -0.0228312165 0
0.0450000018 -0.0228312165 0
0.0416666679 -0.0228312165 0
0.140000001 -0.0257179681 0
0.13666667 -0.0257179681 0
0.13333334 -0.0257179681 0
0.129999995 -0.0257179681 0
0.126666665 -0.0257179681 0
0.123333335 -0.0257179681 0
0.119999997 -0.0257179681 0
0.116666667 -0.0257179681 0
0.113333337 -0.0257179681 0
0.109999999 -0.0257179681 0
0.106666669 -0.0257179681 0
0.103333332 -0.0257179681 0
0.100000001 -0.0257179681 0
0.0966666639 -0.0257179681 0
0.0933333337 -0.0257179681 0
0.0900000036 -0.0257179681 0
0.086666666 -0.0257179681 0
0.0833333358 -0.0257179681 0
0.0799999982 -0.0257179681 0
0.0766666681 -0.0257179681 0
0.0733333305 -0.0257179681 0
0.0700000003 -0.0257179681 0
0.0666666701 -0.0257179681 0
0.0633333325 -0.0257179681 0
0.0599999987 -0.0257179681 0
0.0566666685 -0.0257179681 0
0.0533333346 -0.0257179681 0
0.0500000007 -0.0257179681 0
0.0466666669 -0.0257179681 0
0.043333333 -0.0257179681 0
0.0399999991 -0.0257179681 0
0.138333336 -0.0286047198 0
0.135000005 -0.0286047198 0
0.13166666 -0.0286047198 0
0.12833333 -0.0286047198 0
0.125 -0.0286047198 0
0.12166667 -0.0286047198 0
0.118333332 -0.0286047198 0
0.115000002 -0.0286047198 0
0.111666664 -0.0286047198 0
0.108333334 -0.0286047198 0
0.104999997 -0.0286047198 0
0.101666667 -0.0286047198 0
0.0983333364 -0.0286047198 0
0.0949999988 -0.0286047198 0
0.0916666687 -0.0286047198 0
0.088333331 -0.0286047198 0
0.0850000009 -0.0286047198 0
0.0816666633 -0.0286047198 0
0.0783333331 -0.0286047198 0
0.075000003 -0.0286047198 0
0.0716666654 -0.0286047198 0
0.0683333352 -0.0286047198 0
0.0649999976 -0.0286047198 0
0.0616666675 -0.0286047198 0
0.0583333336 -0.0286047198 0
0.0549999997 -0.0286047198 0
0.0516666658 -0.0286047198 0
0.0483333319 -0.0286047198 0
0.0450000018 -0.0286047198 0
0.0416666679 -0.0286047198 0
0.038333334 -0.0286047198 0
0.13666667 -0.0314914696 0
0.13333334 -0.0314914696 0
0.129999995 -0.0314914696 0
0.126666665 -0.0314914696 0
0.123333335 -0.0314914696 0
0.119999997 -0.0314914696 0
0.116666667 -0.0314914696 0
0.113333337 -0.0314914696 0
0.109999999 -0.0314914696 0
0.106666669 -0.0314914696 0
0.103333332 -0.0314914696 0
0.100000001 -0.0314914696 0
0.0966666639 -0.0314914696 0
0.0933333337 -0.0314914696 0
0.0900000036 -0.0314914696 0
0.086666666 -0.0314914696 0
0.0833333358 -0.0314914696 0
0.0799999982 -0.0314914696 0
0.0766666681 -0.0314914696 0
0.0733333305 -0.0314914696 0
0.0700000003 -0.0314914696 0
0.0666666701 -0.0314914696 0
0.0633333325 -0.0314914696 0
0.0599999987 -0.0314914696 0
0.0566666685 -0.0314914696 0
0.0533333346 -0.0314914696 0
0.0500000007 -0.0314914696 0
0.0466666669 -0.0314914696 0
0.043333333 -0.0314914696 0
0.0399999991 -0.0314914696 0
0.0366666652 -0.0314914696 0
0.135000005 -0.0343782231 0
0.13166666 -0.0343782231 0
0.12833333 -0.0343782231 0
0.125 -0.0343782231 0
0.12166667 -0.0343782231 0
0.118333332 -0.0343782231 0
0.115000002 -0.0343782231 0
0.111666664 -0.0343782231 0
0.108333334 -0.0343782231 0
0.104999997 -0.0343782231 0
0.101666667 -0.0343782231 0
0.0983333364 -0.0343782231 0
0.0949999988 -0.0343782231 0
0.0916666687 -0.0343782231 0
0.088333331 -0.0343782231 0
0.0850000009 -0.0343782231 0
0.0816666633 -0.0343782231 0
0.0783333331 -0.0343782231 0
0.075000003 -0.0343782231 0
0.0716666654 -0.0343782231 0
0.0683333352 -0.0343782231 0
0.0649999976 -0.0343782231 0
0.0616666675 -0.0343782231 0
0.0583333336 -0.0343782231 0
0.0549999997 -0.0343782231 0
0.0516666658 -0.0343782231 0
0.0483333319 -0.0343782231 0
0.0450000018 -0.0343782231 0
0.0416666679 -0.0343782231 0
0.038333334 -0.0343782231 0
0.0350000001 -0.0343782231 0
0.13333334 -0.0372649729 0
0.129999995 -0.0372649729 0
0.126666665 -0.0372649729 0
0.123333335 -0.0372649729 0
0.119999997 -0.0372649729 0
0.116666667 -0.0372649729 0
0.113333337 -0.0372649729 0
0.109999999 -0.0372649729 0
0.106666669 -0.0372649729 0
0.103333332 -0.0372649729 0
0.100000001 -0.0372649729 0
0.0966666639 -0.0372649729 0
0.0933333337 -0.0372649729 0
0.0900000036 -0.0372649729 0
0.086666666 -0.0372649729 0
0.0833333358 -0.0372649729 0
0.0799999982 -0.0372649729 0
0.0766666681 -0.0372649729 0
0.0733333305 -0.0372649729 0
0.0700000003 -0.0372649729 0
0.0666666701 -0.0372649729 0
0.0633333325 -0.0372649729 0
0.0599999987 -0.0372649729 0
0.0566666685 -0.0372649729 0
0.0533333346 -0.0372649729 0
0.0500000007 -0.0372649729 0
0.0466666669 -0.0372649729 0
0.043333333 -0.0372649729 0
0.0399999991 -0.0372649729 0
0.0366666652 -0.0372649729 0
0.0333333351 -0.0372649729 0
0.13166666 -0.0401517227 0
0.12833333 -0.0401517227 0
0.125 -0.0401517227 0
0.12166667 -0.0401517227 0
0.118333332 -0.0401517227 0
0.115000002 -0.0401517227 0
0.111666664 -0.0401517227 0
[...]
POINT_DATA 961
SCALARS Temp float 1
LOOKUP_TABLE default
529.1976240933748
485.78951522272985
446.45162838242095
411.85741242355033
382.08242333620814
356.9897992772016
336.28335031189744
319.55291570970854
306.3173531169847
296.0654784835532
288.29085472029897
282.5187504960472
278.3249030410045
275.3462665068764
273.2850445444613
271.9080731655466
271.0433293295986
270.5755764236085
270.44258920818044
270.63302443043943
271.18638944360833
272.1949650860957
273.80691588520165
276.229350280074
279.72956738753544
284.6328781966848
291.3154486658808
300.19174990663566
311.69862053039895
326.2841768617251
344.56370870705916
485.7895275244349
442.63285913337785
404.34332691588827
371.0239518470389
342.62796673498553
318.9274719899974
299.5559913245138
284.05164365883655
271.90061924617874
262.57593683682813
255.5695467923109
250.41587575574982
246.70718753568883
244.10113682380327
242.3225667399062
241.16126567986151
240.46785398805648
240.14949337300567
240.16674988865836
240.5324324224711
241.3125661614128
242.62905003620193
244.6629844972805
247.65709166027335
251.91542229146236
257.7987021869726
265.71392340670695
276.09846364941404
289.40024808348284
306.0626673489931
326.2841964922877
446.4515813030552
404.3433027846224
367.29920022016796
335.3454121147569
308.33433150018317
285.96429325038673
267.8160823373279
253.39438698543756
242.16917579684213
233.6116261042015
227.22251007785457
222.55245889807316
219.21406768931067
216.8870154819874
215.31823707000518
214.3188841819225
213.7601708396466
213.56958535459702
213.7286456811396
214.27271853213026
215.2928224874835
216.9386858497723
219.42180632280065
223.01671289381602
228.0586687196364
234.93600391453987
244.07597769505142
255.92382484494087
270.9134551321908
289.40023927182426
311.6986325649661
411.85734840746284
371.02391305501754
335.3454090527739
304.77262831566264
279.0885592723346
257.9393976048689
240.87199964312958
227.3747500045924
216.91549769244415
208.97410676501124
203.06727148081472
198.76566722306458
195.7033970312793
193.58155422697368
192.1673776025484
191.29110305350187
190.84218410144805
190.76627916985737
191.06394533220973
191.79131640199685
193.06244685738886
195.0524025663942
197.9995800491598
202.20541810111703
208.02968593973657
215.87950948663996
226.19130830253164
239.4043890051796
255.92384243754523
276.09847688152803
300.1917414731724
382.0823559564245
342.627924901084
308.33430494339757
279.08865429668754
254.62431347273318
234.5547924278157
218.41076392562644
205.67847603980567
195.8344579180329
188.37427388087218
182.83441402975643
178.80675065009524
175.9462245433793
173.97342564876013
172.6734618555044
171.89310539905094
171.5376574840714
171.5688148802541
172.00420698362754
172.91871472237978
174.44704425712067
176.78646374488554
180.19802211083982
185.00448148989116
191.58299809230417
200.3510768474338
211.74506650336676
226.19130048648339
244.07597201096823
265.71392282442594
291.3154535676388
356.98972465101775
318.9275227901966
285.9643594603382
257.9393594759198
234.55477644411954
215.40821668967445
200.02861661548724
187.9108843433555
178.5472873934475
171.4530042118675
166.18552070005418
162.35709620054791
159.64158169722342
157.77648800027498
156.56211412280268
155.85922832995902
155.5867079169857
155.72022634214434
156.2924649050554
157.39480732883604
159.17985429062497
161.86348682873293
165.72480366458845
171.10216136212304
178.38342789913213
187.9895652844854
200.35107204252296
215.8795111460551
234.93601026449488
257.79867926739945
284.63287592720326
336.2833668654546
299.55602335014987
267.8161409956189
240.87195294622447
218.41074169275882
200.02860898037613
185.26330014778105
173.62560439167825
164.627276791054
157.80432676498904
152.7344102174247
149.0482114531774
146.43583342805823
144.64895171804287
143.50043154648776
142.8626690626182
142.6660182090819
142.89814801113772
143.60472453703986
144.89123430558544
146.92517880952997
149.93727586983755
154.22009640500218
160.12229108545327
168.0369480188678
178.38342231996896
191.5829869439474
208.0296702186011
228.0586701982598
251.91542148550445
279.7295751938473
319.5529336149283
284.0516747120026
253.39431648568743
227.37470351375813
205.6784807994133
187.91090419004803
173.6255983428112
162.35295339697194
153.62543354022085
146.99910221251469
142.06967288711837
138.48363427972924
135.94448736351774
134.21539805601628
133.11939002202428
132.5383844739813
132.41229897549792
132.73890477144224
133.57477311991468
135.03702513625285
137.3050263461701
140.62069165992497
145.28586460662737
151.65501549827405
160.12228706239125
171.10215503167785
185.00448575625234
202.20542024667174
223.01669703340679
247.6570715525549
276.229338754919
306.31736171743773
271.9006549118715
242.16913407783173
216.9154811708609
195.83446375335407
178.5472691976421
164.62726975384615
153.62545262323198
145.09421710446586
138.60755574378064
133.77660030499604
130.2607383910064
127.77417206318302
126.08914210276014
125.03672005692326
124.5065158604001
124.44627991760242
124.86209914658902
125.81942717737948
127.44460668377587
129.92598403437478
133.51338803403564
138.51438319642338
145.28586865908264
154.22009996344437
165.72480468249407
180.1980209279054
197.99957527916052
219.42180921853299
244.6629936315796
273.8069353056315
296.06552516024044
262.5758719731268
233.61159854216174
208.9740989095588
188.37428542926446
171.4530033056557
157.80433699095047
146.99909539278642
138.6075505278152
132.21881111701177
127.4565988902093
123.99042100478503
121.54276214795091
119.89284909385123
118.87803321079257
118.39402843767947
118.39486771782362
118.89329830342095
119.96175717722778
121.7335781600759
124.40355148347489
128.2266502694765
133.51338475157124
140.62069163367013
149.93727471512844
161.86348454208382
176.78646081153516
195.05238253563274
216.9386703439938
242.62903278485055
272.1949570603836
288.2909250553086
255.56949442425096
227.22249081703873
203.0672818884205
182.8343984051112
166.18552141975005
152.73442189796168
142.0696750841591
133.77660597231255
127.45659800289249
122.74314010128477
119.31344238144011
116.89620952039355
115.27590629300147
114.29469597216189
113.85303999857213
113.90989861017613
114.48319275197842
115.65064362613855
117.55063241880303
120.38228604929388
124.40355763024104
129.9259851557371
137.3050233559098
146.92517408100136
159.17985385901346
174.4470416838795
193.06244455057208
215.2928280831941
241.31257391129034
271.1863771227823
282.5186896261826
250.4158446103385
222.55245737820147
198.76568201250825
178.80673609054196
162.35710561158118
149.0482033338466
138.48363664479405
130.26072917424884
123.99042026738829
119.31344876366154
115.91266859103175
113.52128863605809
111.92762109406655
110.97743537285463
110.57479728500742
110.68243391063083
111.32215697476171
112.57553061589331
114.58441494592002
117.55063768435176
121.73358158893254
127.44460489438643
135.0370332608027
144.8912432244372
157.39481856884294
172.91870825713363
191.79130896137
214.2727209974295
240.53243530935862
270.6330382623842
278.32487003425314
246.70717672176804
219.21408258324158
195.70337883352246
175.94622679962345
159.6415999856983
146.43583054204277
135.94449432494673
127.77416873144875
121.54276627668764
116.89620606265109
113.52128630393625
111.15432138275149
109.58636276351693
108.66580406994035
108.29939818757903
108.45267751778715
109.15030230246165
110.47653426628567
112.57552504746492
115.65064200207995
119.96176211167344
125.81942084089812
133.57477100462302
143.60472142730148
156.29246097825597
172.0042050633686
191.06394364372176
213.7286531742303
240.16672701132967
270.44259350469525
275.3462374621147
244.1011342615238
216.88704005849985
193.5815381548743
173.9734309912793
157.77647337173602
144.6489540272335
134.21539104636975
126.0891396313961
119.89285478013316
115.27590245106789
111.92762191472538
109.58636216541528
108.04504045753215
107.15389881091781
106.82166712313231
107.01593957642218
107.7634375390098
109.15030135702294
111.32215866974106
114.48319279561996
118.89330146175038
124.86209861062525
132.73891018451565
142.89815634901103
155.7202213130071
171.56880920948288
190.76627314719605
213.56958733988495
240.14949707342453
270.575575243571
273.28504003032583
242.32258373864067
215.31821911003755
192.16737671210947
172.6734835578882
156.56211167409336
143.50044288753597
133.11938835966697
125.03671955458132
118.87803203125213
114.29469629974415
110.97743704422992
108.66580329864827
107.15389995979068
106.29327523407142
105.994120116655
106.22558837924501
107.01593884304053
108.45267589789286
110.6824322070249
113.90989880011794
118.39486577158168
124.44627368885551
132.41229730604164
142.66601574763774
155.58670646457225
171.53765631873017
190.84218380689578
213.7601527604001
240.46785048047397
271.0433212925232
271.9080722598954
241.1612870181929
214.31887109732506
191.29110807644926
171.89308820377627
155.85922865399948
142.8626580071313
132.5383859678055
124.50651954403716
118.39402780905486
113.85304107633105
110.57479360249937
108.29939879220605
106.82166574790936
105.99412018595802
105.72812100243395
105.99412062521115
106.82166635372103
108.29940031512662
110.57479531291952
113.85303930573411
118.3940316169994
124.50651616155119
132.5383911328556
142.86266410992576
155.85922357250863
171.89310127226838
191.29109828875733
214.31888918176398
241.16125451161489
271.9080743187727
271.043351870774
240.4678305429418
213.7601785015638
190.84220753355444
171.53765330157165
155.58672161979132
142.66601679326163
132.4123054541787
124.44627390149174
118.39487135785843
113.90990353326644
110.68243250018756
108.452680348063
107.01593944086599
106.22558886095406
105.99412095684858
106.29327594013573
107.15389819540951
108.66580422508072
110.97743466054088
114.29469317353403
118.87803280431831
125.03671405819114
133.1193882493301
143.5004311352644
156.56211463437626
172.6734637324228
192.1673544691573
215.3182344250314
242.32254996154396
273.2850383250115
270.5756078013604
240.14947628173041
213.56959819321514
190.76625683049156
171.56881470534216
155.72021320609255
142.89814950643498
132.73891421168486
124.8620935202852
118.89330372068136
114.48319040140949
111.32215654217615
109.15030036168939
107.76343674872619
107.01594031218991
106.82166727283783
107.15389908166516
108.04504146919108
109.58636329826705
111.92762055256858
115.27590518931014
119.89285199683657
126.08914342084094
134.21539548889098
144.64894943879975
157.77648341675197
173.97342159509125
193.58155165105867
216.8870072704067
244.1011299953048
275.3462669067616
270.4425567618571
240.16673973004333
213.7286647685269
191.063926205848
172.00421158166546
156.29245268594966
143.60472391994796
133.57476511520488
125.81942326095864
119.96176455328573
115.65063941921703
112.57552895547784
110.47653321516654
109.15030150064378
108.45267739935683
108.29939818495751
108.66580310021031
109.58636363739919
111.15432028682471
113.52128515313339
116.89620833532936
121.5427645921293
127.77417213541817
135.94448963797896
146.4358390402648
159.64159106865446
175.9462171619312
195.70340231172383
219.21406442684554
246.70718663403034
278.3249136062196
270.6330178092206
240.53244685723286
214.27270076940928
191.79131456870022
172.9186978689323
157.39480987141368
144.89124798985515
135.03702678161767
127.444607761768
121.73357845722454
117.55063490107673
114.58441352720202
112.57552942762719
111.3221584667709
110.68243383833035
110.57479728024886
110.97743597610652
111.92762176664188
113.52128762424576
115.9126705006317
119.31344654436553
123.99042302176852
130.2607323487358
138.4836326929311
149.04821102316257
162.35709717472378
178.80674675448873
198.76565256779165
222.5524528180453
250.41587107614458
282.518746888594
271.1863876503088
241.3125846704849
215.29280648845887
193.06245135281407
174.4470313896349
159.1798567458394
146.9251667337868
137.30502640771275
129.92598829082442
124.40355433381124
120.38229129001648
117.55063104811106
115.65064252236559
114.48319237301997
113.90989828546122
113.85303972742868
114.29469653206208
115.27590550002877
116.89620871779387
119.31344395538271
122.74313872881001
127.45660045807303
133.77660210274223
142.0696816571691
152.73441426566652
166.18551326097085
182.8344183694998
203.06726701865426
227.22250294820788
255.5695423830922
288.29084820926965
272.1949651892271
242.62900713311632
216.93867586052534
195.05237000225105
176.78645041979237
161.86349025668054
149.93726695008706
140.62069528847695
133.51338093876845
128.2266468714579
124.4035496614641
121.73357656950323
119.96175946045348
118.89329809322864
118.39486750992653
118.39402873963493
118.87803354019218
119.89284839317095
121.54276345988352
123.99041930877063
127.45660092856711
132.21881338906516
138.6075473171078
146.999101421967
157.80432999256817
171.4530124928662
188.37426106571726
208.97409784916624
233.61162953892082
262.5759452946593
296.06549143325475
273.80696499822324
244.66298905220975
219.4218356363821
197.9995805351806
180.19804005820896
165.72481025200858
154.22011682917514
145.28588466286578
138.5143904765659
133.51340533464548
129.92599254209404
127.44461508107982
125.81943604865305
124.86210776360858
124.44628927025056
124.5065250322757
125.03672807297369
126.08914986615072
127.77418099900419
130.2607446378628
133.77660873651013
138.6075584701942
145.09422699112633
153.62544982864418
164.62726530691606
178.54728695675976
195.8344509543586
216.91549205942337
242.16917920927105
271.9005846751481
306.31733237573053
276.2293345749786
247.65710049425715
223.01670337660593
202.20542728185714
185.00450988571808
171.1021623196716
160.12230668658663
151.6550253443562
145.285874235367
140.62070249151617
137.3050369798629
135.0370404931572
133.5747849019177
132.73891628121208
132.41231073239786
132.53839602259367
133.11940081859575
134.2154098808827
135.94449664802812
138.48364585387262
142.06968386052986
146.99910817962953
153.62544576716934
162.35295385492938
173.62561084914512
187.91088677417483
205.67848217135324
227.3747321700207
253.39438095137598
284.05163583211805
319.5529188898699
279.7295638704374
251.91544224160657
228.0586681782166
208.02968486814893
191.5829870062454
178.38343618768894
168.03696155624124
160.12229489929123
154.22011250085734
149.93728186997708
146.92518486845387
144.89124101012354
143.60473103919438
142.89815612670924
142.66602567919202
142.86267584471557
143.5004383568545
144.64895936768082
146.43583928868557
149.04821918258156
152.7344138815888
157.80433636843924
164.62727653120953
173.62560332894122
185.26331801115222
200.0286011242222
218.41075466571294
240.8719957514573
267.8160762003434
299.5559923400658
336.2833696091291
284.6328847149191
257.7986649286499
234.9359983574457
215.87951962892538
200.3510630674098
187.98957112253606
178.38342343312118
171.10215729922785
165.72480134202323
161.86348463018555
159.17985808892408
157.39480709637198
156.2924645163466
155.72022631461158
155.58670784393829
155.859228127482
156.56211475286162
157.7764870996716
159.64158290696082
162.35709726626766
166.18551847983565
171.45300759507876
178.54728183514234
187.91088943954765
200.02859671838695
215.40821322644453
234.55479661010938
257.93940995788336
285.9643115901715
318.9274889290117
356.98972349095465
291.3154491114354
265.7138963066832
244.07596486837826
226.19127830352537
211.74506012284542
200.3510705934045
191.5829814164709
185.00447888724437
180.19800852311104
176.78645040073943
174.44703171274398
172.91870203681464
172.00419659505036
171.56880355902098
171.5376458155416
171.89309400515157
172.6734511162178
173.97341379738629
175.94621441057825
178.80673773589368
182.83440621677852
188.37425838385033
195.83444226315316
205.6784765250001
218.41074201293506
234.55478801089126
254.62433372011137
279.08857265370517
308.33424730571045
342.62788796759264
382.08234469796656
300.19175694333956
276.098494805284
255.92388181569711
239.40440922391053
226.191343576375
215.8795331222539
208.02970963208006
202.2054432414994
197.999605093558
195.05243413659298
193.06247386562433
191.7913431021364
191.06397225050705
190.76630594309376
190.84221091696892
191.29113024512486
192.16740350005526
193.5815815299802
195.7034237147226
198.7656907913509
203.06729888389918
208.97412560680016
216.9155240286113
227.37475261516852
240.87201374758334
257.9394287298819
279.0886120911993
304.7725828398947
335.345364839094
371.02388302165303
411.85735257304646
311.69864478680313
289.40027283923075
270.91347183292544
255.9238568452958
244.07600903139613
234.93602379134342
228.05870297827232
223.016735439034
219.4218289430715
216.9387091027607
215.29284540770314
214.2727439435984
213.72866986681953
213.56960922086424
213.76019490037348
214.31890846690501
215.31826021510147
216.88703965231048
219.2140891371276
222.55248386073745
227.22252754249445
233.61164223412862
242.1692041130238
253.3943929648654
267.8161004834096
285.96432880367695
308.3342670977433
335.345360323443
367.29915422744494
404.3432665422789
446.45157578911636
326.28419979389076
306.0626899807285
289.4002500781687
276.0984804077277
265.71392833647803
257.7987072125811
251.9154287936061
247.65709819658775
244.66299796954888
242.62905885726872
241.31257459263188
240.5324411210203
240.16675852499782
240.14950232469153
240.4678632221937
241.16127398850833
242.3225763581445
244.1011459502228
246.70719426342313
250.4158859492623
255.56954960259125
262.5759462473032
271.9006074203269
284.05164159971963
299.5560032484443
318.92750154643835
342.6279020888063
371.02388171120566
404.3432576724667
442.63279763795674
485.7894348895081
344.56372442233175
326.28417084227164
311.6986287124167
300.19175724004054
291.31544416853757
284.6328880080797
279.7295654101339
276.2293491460096
273.80691528029627
272.19496348271895
271.1863906454126
270.63302428904666
270.44258915026495
270.57557647777253
271.0433295724547
271.9080726335614
273.2850445755204
275.3462647088902
278.32490429400775
282.51874515254104
288.2908483088184
296.06548336372595
306.3173381644652
319.5529110120998
336.283359847051
356.98971597410736
382.08235056881557
411.8573391304136
446.45155143597816
485.78941842112783
529.197246549574
