# vtk DataFile Version 2.0
Unstructured Grid Example
ASCII
DATASET UNSTRUCTURED_GRID

POINTS 961 float
0.150000006 -0.00839745998 0
0.146666661 -0.00839745998 0
0.143333331 -0.00839745998 0
0.140000001 -0.00839745998 0
0.13666667 -0.00839745998 0
0.13333334 -0.00839745998 0
0.129999995 -0.00839745998 0
0.126666665 -0.00839745998 0
0.123333335 -0.00839745998 0
0.119999997 -0.00839745998 0
0.116666667 -0.00839745998 0
0.113333337 -0.00839745998 0
0.109999999 -0.00839745998 0
0.106666669 -0.00839745998 0
0.103333332 -0.00839745998 0
0.100000001 -0.00839745998 0
0.0966666639 -0.00839745998 0
0.0933333337 -0.00839745998 0
0.0900000036 -0.00839745998 0
0.086666666 -0.00839745998 0
0.0833333358 -0.00839745998 0
0.0799999982 -0.00839745998 0
0.0766666681 -0.00839745998 0
0.0733333305 -0.00839745998 0
0.0700000003 -0.00839745998 0
0.0666666701 -0.00839745998 0
0.0633333325 -0.00839745998 0
0.0599999987 -0.00839745998 0
0.0566666685 -0.00839745998 0
0.0533333346 -0.00839745998 0
0.0500000007 -0.00839745998 0
0.148333326 -0.0112842107 0
0.144999996 -0.0112842107 0
0.141666666 -0.0112842107 0
0.138333336 -0.0112842107 0
0.135000005 -0.0112842107 0
0.13166666 -0.0112842107 0
0.12833333 -0.0112842107 0
0.125 -0.0112842107 0
0.12166667 -0.0112842107 0
0.118333332 -0.0112842107 0
0.115000002 -0.0112842107 0
0.111666664 -0.0112842107 0
0.108333334 -0.0112842107 0
0.104999997 -0.0112842107 0
0.101666667 -0.0112842107 0
0.0983333364 -0.0112842107 0
0.0949999988 -0.0112842107 0
0.0916666687 -0.0112842107 0
0.088333331 -0.0112842107 0
0.0850000009 -0.0112842107 0
0.0816666633 -0.0112842107 0
0.0783333331 -0.0112842107 0
0.075000003 -0.0112842107 0
0.0716666654 -0.0112842107 0
0.0683333352 -0.0112842107 0
0.0649999976 -0.0112842107 0
0.0616666675 -0.0112842107 0
0.0583333336 -0.0112842107 0
0.0549999997 -0.0112842107 0
0.0516666658 -0.0112842107 0
0.0483333319 -0.0112842107 0
0.146666661 -0.0141709624 0
0.143333331 -0.0141709624 0
0.140000001 -0.0141709624 0
0.13666667 -0.0141709624 0
0.13333334 -0.0141709624 0
0.129999995 -0.0141709624 0
0.126666665 -0.0141709624 0
0.123333335 -0.0141709624 0
0.119999997 -0.0141709624 0
0.116666667 -0.0141709624 0
0.113333337 -0.0141709624 0
0.109999999 -0.0141709624 0
0.106666669 -0.0141709624 0
0.103333332 -0.0141709624 0
0.100000001 -0.0141709624 0
0.0966666639 -0.0141709624 0
0.0933333337 -0.0141709624 0
0.0900000036 -0.0141709624 0
0.086666666 -0.0141709624 0
0.0833333358 -0.0141709624 0
0.0799999982 -0.0141709624 0
0.0766666681 -0.0141709624 0
0.0733333305 -0.0141709624 0
0.0700000003 -0.0141709624 0
0.0666666701 -0.0141709624 0
0.0633333325 -0.0141709624 0
0.0599999987 -0.0141709624 0
0.0566666685 -0.0141709624 0
0.0533333346 -0.0141709624 0
0.0500000007 -0.0141709624 0
0.0466666669 -0.0141709624 0
0.144999996 -0.0170577131 0
0.141666666 -0.0170577131 0
0.138333336 -0.0170577131 0
0.135000005 -0.0170577131 0
0.13166666 -0.0170577131 0
0.12833333 -0.0170577131 0
0.125 -0.0170577131 0
0.12166667 -0.0170577131 0
0.118333332 -0.0170577131 0
0.115000002 -0.0170577131 0
0.111666664 -0.0170577131 0
0.108333334 -0.0170577131 0
0.104999997 -0.0170577131 0
0.101666667 -0.0170577131 0
0.0983333364 -0.0170577131 0
0.0949999988 -0.0170577131 0
0.0916666687 -0.0170577131 0
0.088333331 -0.0170577131 0
0.0850000009 -0.0170577131 0
0.0816666633 -0.0170577131 0
0.0783333331 -0.0170577131 0
0.075000003 -0.0170577131 0
0.0716666654 -0.0170577131 0
0.0683333352 -0.0170577131 0
0.0649999976 -0.0170577131 0
0.0616666675 -0.0170577131 0
0.0583333336 -0.0170577131 0
0.0549999997 -0.0170577131 0
0.0516666658 -0.0170577131 0
0.0483333319 -0.0170577131 0
0.0450000018 -0.0170577131 0
0.143333331 -0.0199444648 0
0.140000001 -0.0199444648 0
0.13666667 -0.0199444648 0
0.13333334 -0.0199444648 0
0.129999995 -0.0199444648 0
0.126666665 -0.0199444648 0
0.123333335 -0.0199444648 0
0.119999997 -0.0199444648 0
0.116666667 -0.0199444648 0
0.113333337 -0.0199444648 0
0.109999999 -0.0199444648 0
0.106666669 -0.0199444648 0
0.103333332 -0.0199444648 0
0.100000001 -0.0199444648 0
0.0966666639 -0.0199444648 0
0.0933333337 -0.0199444648 0
0.0900000036 -0.0199444648 0
0.086666666 -0.0199444648 0
0.0833333358 -0.0199444648 0
0.0799999982 -0.0199444648 0
0.0766666681 -0.0199444648 0
0.0733333305 -0.0199444648 0
0.0700000003 -0.0199444648 0
0.0666666701 -0.0199444648 0
0.0633333325 -0.0199444648 0
0.0599999987 -0.0199444648 0
0.0566666685 -0.0199444648 0
0.0533333346 -0.0199444648 0
0.0500000007 -0.0199444648 0
0.0466666669 -0.0199444648 0
0.043333333 -0.0199444648 0
0.141666666 -0.0228312165 0
0.138333336 -0.0228312165 0
0.135000005 -0.0228312165 0
0.13166666 -0.0228312165 0
0.12833333 -0.0228312165 0
0.125 -0.0228312165 0
0.12166667 -0.0228312165 0
0.118333332 -0.0228312165 0
0.115000002 -0.0228312165 0
0.111666664 -0.0228312165 0
0.108333334 -0.0228312165 0
0.104999997 -0.0228312165 0
0.101666667 -0.0228312165 0
0.0983333364 -0.0228312165 0
0.0949999988 -0.0228312165 0
0.0916666687 -0.0228312165 0
0.088333331 -0.0228312165 0
0.0850000009 -0.0228312165 0
0.0816666633 -0.0228312165 0
0.0783333331 -0.0228312165 0
0.075000003 -0.0228312165 0
0.0716666654 -0.0228312165 0
0.0683333352 -0.0228312165 0
0.0649999976 -0.0228312165 0
0.0616666675 -0.0228312165 0
0.0583333336 -0.0228312165 0
0.0549999997 -0.0228312165 0
0.0516666658 -0.0228312165 0
0.0483333319 -0.0228312165 0
0.0450000018 -0.0228312165 0
0.0416666679 -0.0228312165 0
0.140000001 -0.0257179681 0
0.13666667 -0.0257179681 0
0.13333334 -0.0257179681 0
0.129999995 -0.0257179681 0
0.126666665 -0.0257179681 0
0.123333335 -0.0257179681 0
0.119999997 -0.0257179681 0
0.116666667 -0.0257179681 0
0.113333337 -0.0257179681 0
0.109999999 -0.0257179681 0
0.106666669 -0.0257179681 0
0.103333332 -0.0257179681 0
0.100000001 -0.0257179681 0
0.0966666639 -0.0257179681 0
0.0933333337 -0.0257179681 0
0.0900000036 -0.0257179681 0
0.086666666 -0.0257179681 0
0.0833333358 -0.0257179681 0
0.0799999982 -0.0257179681 0
0.0766666681 -0.0257179681 0
0.0733333305 -0.0257179681 0
0.0700000003 -0.0257179681 0
0.0666666701 -0.0257179681 0
0.0633333325 -0.0257179681 0
0.0599999987 -0.0257179681 0
0.0566666685 -0.0257179681 0
0.0533333346 -0.0257179681 0
0.0500000007 -0.0257179681 0
0.0466666669 -0.0257179681 0
0.043333333 -0.0257179681 0
0.0399999991 -0.0257179681 0
0.138333336 -0.0286047198 0
0.135000005 -0.0286047198 0
0.13166666 -0.0286047198 0
0.12833333 -0.0286047198 0
0.125 -0.0286047198 0
0.12166667 -0.0286047198 0
0.118333332 -0.0286047198 0
0.115000002 -0.0286047198 0
0.111666664 -0.0286047198 0
0.108333334 -0.0286047198 0
0.104999997 -0.0286047198 0
0.101666667 -0.0286047198 0
0.0983333364 -0.0286047198 0
0.0949999988 -0.0286047198 0
0.0916666687 -0.0286047198 0
0.088333331 -0.0286047198 0
0.0850000009 -0.0286047198 0
0.0816666633 -0.0286047198 0
0.0783333331 -0.0286047198 0
0.075000003 -0.0286047198 0
0.0716666654 -0.0286047198 0
0.0683333352 -0.0286047198 0
0.0649999976 -0.0286047198 0
0.0616666675 -0.0286047198 0
0.0583333336 -0.0286047198 0
0.0549999997 -0.0286047198 0
0.0516666658 -0.0286047198 0
0.0483333319 -0.0286047198 0
0.0450000018 -0.0286047198 0
0.0416666679 -0.0286047198 0
0.038333334 -0.0286047198 0
0.13666667 -0.0314914696 0
0.13333334 -0.0314914696 0
0.129999995 -0.0314914696 0
0.126666665 -0.0314914696 0
0.123333335 -0.0314914696 0
0.119999997 -0.0314914696 0
0.116666667 -0.0314914696 0
0.113333337 -0.0314914696 0
0.109999999 -0.0314914696 0
0.106666669 -0.0314914696 0
0.103333332 -0.0314914696 0
0.100000001 -0.0314914696 0
0.0966666639 -0.0314914696 0
0.0933333337 -0.0314914696 0
0.0900000036 -0.0314914696 0
0.086666666 -0.0314914696 0
0.0833333358 -0.0314914696 0
0.0799999982 -0.0314914696 0
0.0766666681 -0.0314914696 0
0.0733333305 -0.0314914696 0
0.0700000003 -0.0314914696 0
0.0666666701 -0.0314914696 0
0.0633333325 -0.0314914696 0
0.0599999987 -0.0314914696 0
0.0566666685 -0.0314914696 0
0.0533333346 -0.0314914696 0
0.0500000007 -0.0314914696 0
0.0466666669 -0.0314914696 0
0.043333333 -0.0314914696 0
0.0399999991 -0.0314914696 0
0.0366666652 -0.0314914696 0
0.135000005 -0.0343782231 0
0.13166666 -0.0343782231 0
0.12833333 -0.0343782231 0
0.125 -0.0343782231 0
0.12166667 -0.0343782231 0
0.118333332 -0.0343782231 0
0.115000002 -0.0343782231 0
0.111666664 -0.0343782231 0
0.108333334 -0.0343782231 0
0.104999997 -0.0343782231 0
0.101666667 -0.0343782231 0
0.0983333364 -0.0343782231 0
0.0949999988 -0.0343782231 0
0.0916666687 -0.0343782231 0
0.088333331 -0.0343782231 0
0.0850000009 -0.0343782231 0
0.0816666633 -0.0343782231 0
0.0783333331 -0.0343782231 0
0.075000003 -0.0343782231 0
0.0716666654 -0.0343782231 0
0.0683333352 -0.0343782231 0
0.0649999976 -0.0343782231 0
0.0616666675 -0.0343782231 0
0.0583333336 -0.0343782231 0
0.0549999997 -0.0343782231 0
0.0516666658 -0.0343782231 0
0.0483333319 -0.0343782231 0
0.0450000018 -0.0343782231 0
0.0416666679 -0.0343782231 0
0.038333334 -0.0343782231 0
0.0350000001 -0.0343782231 0
0.13333334 -0.0372649729 0
0.129999995 -0.0372649729 0
0.126666665 -0.0372649729 0
0.123333335 -0.0372649729 0
0.119999997 -0.0372649729 0
0.116666667 -0.0372649729 0
0.113333337 -0.0372649729 0
0.109999999 -0.0372649729 0
0.106666669 -0.0372649729 0
0.103333332 -0.0372649729 0
0.100000001 -0.0372649729 0
0.0966666639 -0.0372649729 0
0.0933333337 -0.0372649729 0
0.0900000036 -0.0372649729 0
0.086666666 -0.0372649729 0
0.0833333358 -0.0372649729 0
0.0799999982 -0.0372649729 0
0.0766666681 -0.0372649729 0
0.0733333305 -0.0372649729 0
0.0700000003 -0.0372649729 0
0.0666666701 -0.0372649729 0
0.0633333325 -0.0372649729 0
0.0599999987 -0.0372649729 0
0.0566666685 -0.0372649729 0
0.0533333346 -0.0372649729 0
0.0500000007 -0.0372649729 0
0.0466666669 -0.0372649729 0
0.043333333 -0.0372649729 0
0.0399999991 -0.0372649729 0
0.0366666652 -0.0372649729 0
0.0333333351 -0.0372649729 0
0.13166666 -0.0401517227 0
0.12833333 -0.0401517227 0
0.125 -0.0401517227 0
0.12166667 -0.0401517227 0
0.118333332 -0.0401517227 0
0.115000002 -0.0401517227 0
0.111666664 -0.0401517227 0
[...]
POINT_DATA 961
SCALARS Temp float 1
LOOKUP_TABLE default
469.0093015467781
422.7296265590971
382.15204348703315
348.04600283262914
320.25800808798186
298.300044498575
281.4701534205651
268.95729356604033
259.9311635243359
253.61227940872624
249.31750556432368
246.48215784013874
244.6631396117342
243.52891362759047
242.842335247886
242.4414643363359
242.22185258143742
242.12256841752003
242.11716128690742
242.2101472652722
242.43927894961908
242.88352179172497
243.67612651859147
245.02125228124953
247.2111112406876
250.6392477797373
255.80440614992185
263.30006347923796
273.7883908386708
287.96772849447785
306.7405062995507
422.7296401255044
377.29058803150855
338.59000327901214
306.540688389398
280.78946786109253
260.71499460767643
245.53233710524037
234.39057186560632
226.45549418043834
220.9691932577713
217.28522174262656
214.88160133098938
213.3572650930383
212.4178632052498
211.85687821938413
211.53639241647483
211.370566752232
211.31358433003845
211.35296906908323
211.50873107300364
211.83845215496513
212.44801832161633
213.50697351633698
215.26621058710202
218.07420189110346
222.3865955256463
228.7633225704842
237.84903921617465
250.33611744441836
266.92111009509136
287.96774828963663
382.151996241118
338.5899801673458
301.9031857587178
271.87073103809746
247.9921930355811
229.55845177990594
215.74294429696673
205.68970338450995
198.58546301418335
193.70867416241816
190.45534643906893
188.3453994787168
187.0148544937004
186.19979221109173
185.7173602878066
185.44757664135201
185.31852321476296
185.29635452526193
185.38090485380468
185.6072513402587
186.053215114091
186.8522263311733
188.21002158055154
190.42217142679203
193.88795278036696
199.1147423474467
206.7070760788155
217.33593872293483
231.68467356359812
250.3361083166986
273.78840211951155
348.0459412786506
306.54065306776954
271.87072977639446
243.70514806463797
221.46228298733774
204.39212177094498
191.66251267735066
182.43820742700333
175.94200125973398
171.49467308430815
168.53399119564665
166.61687996769422
165.40962471654768
164.67171808262884
164.23774859123904
164.00076923113525
163.89932189713468
163.90941300862917
164.04216536790173
164.34742554020804
164.9231554864389
165.92970708112748
167.60687755389088
170.29014691630553
174.42101952477466
180.5453062462135
189.29378071970672
201.3406035028745
217.3359555246873
237.8490525003548
263.3000549680427
320.2579473584726
280.7894324895974
247.99217190353372
221.46236457377586
200.5814411597329
184.59545688526177
172.6932437310578
164.07565118832747
158.00782085039032
153.8521953288025
151.08348186201604
149.2887938306355
148.15763439590904
147.46660064009126
147.06269080035136
146.848335201066
146.7701254806011
146.81251336796484
146.99716285836365
147.38816443198274
148.102738558749
149.32616271617778
151.32831037224463
154.47775467178727
159.24793705145066
166.20944113998516
176.00338843627256
189.2937733161562
206.707070851371
228.76332143163282
255.8044115740635
298.2999804499132
260.7150382594671
229.55850895550037
204.39208695934477
184.59544280544048
169.43626031487912
158.1400012512975
149.9499718926667
144.17309378445586
140.20872791191857
137.56175563264233
135.8423753684396
134.75698957788515
134.09418367952912
133.70959050642534
133.51243409821876
133.45572090243544
133.53134616260425
133.77076547922547
134.25135277948104
135.107853413837
136.5472909144144
138.86435609972133
142.4529076398355
147.8080180078993
155.51328013939724
166.20943719645032
180.54530774922975
199.11474911268272
222.38657331534955
250.63924352851294
281.4701663996319
245.53236482808353
215.74299702383976
191.66247113898683
172.69322567357756
158.13999580677785
147.27098661888502
139.37151269635524
133.78543948842935
129.94231868923038
127.37010767967936
125.6957614232951
124.6374202063763
123.9918189863595
123.62055028768334
123.43786998927656
123.40206482370353
123.51163102151884
123.80689780200004
124.37709479814805
125.37205206640023
127.01659489310022
129.62444656841691
133.60708716094692
139.47234309660024
147.80801329949577
159.24792749563952
174.42100592410463
193.8879526286507
218.07420039944776
247.21111955417868
268.95731055626334
234.39060131450012
205.68964040634904
182.43816854944737
164.0756528416544
149.94998686705267
139.3715086082775
131.66267662646135
126.19758309831167
122.42890463393466
119.90126979215228
118.25324869497972
117.21082767919513
116.576170207369
116.21500588104796
116.04542989239013
116.03015326901681
116.17344627698675
116.5233798704351
117.17923729700507
118.30308211364353
120.13336996160328
122.99728408347514
127.31727595332588
133.60708417342113
142.45290312181487
154.47775759174814
170.29014860372678
190.42215604728452
215.2661908488319
245.02124164621898
259.93117213916406
226.455529262406
198.58541903233157
175.9419835481041
158.00782467470904
144.17308023562427
133.78543518011776
126.19759532878909
120.80682230363611
117.08250870593866
114.580806438225
112.94798164721281
111.91512481813952
111.28798247549436
110.93520363530396
110.77788597690883
110.78243982356729
110.9580405579539
111.35921126605761
112.09329689278391
113.3316720966394
115.32249358724151
118.40160103005914
122.9972870182639
129.62444835717793
138.8643560889415
151.3283089897761
167.60687302687774
188.21002502895672
213.50698142470526
243.67614567777096
253.6123211195997
220.9691284176888
193.7086488849785
171.49466776910324
153.85220807995842
140.20872671179393
129.94232640913384
122.4289009258693
117.08250584638425
113.38399588932566
110.89717191419317
109.27320859604701
108.2464478471411
107.6250012262089
107.27962785105848
107.13379663945368
107.15695258596266
107.36227439138283
107.80939161429696
108.61174053547371
109.94732641334937
112.07065886416751
115.32249130235697
120.13336970816785
127.01659424772116
136.5472896230941
149.32616135672745
165.92968802894282
186.85221100629883
212.44800119664998
242.88351358497445
249.31756912437274
217.28517007311663
190.45533064941557
168.53399842396155
151.08346856890287
137.56175666032613
127.37011736386548
119.90127067594035
114.58080975646563
110.89717150194365
108.41899382006049
106.80050538269353
105.77808765043028
105.16141861127633
104.82280805329523
104.6875819207608
104.72759938143977
104.95915871068041
105.44571353812151
106.30502052557681
107.71947002365816
109.94732977206321
113.33167283923181
118.30308005586556
125.37204884579081
135.10785230755027
148.10273563872124
164.92315338456967
186.05322065652166
211.83846048127555
242.43926597004017
246.48209631991477
214.88156782268226
188.34539670684376
166.61689312142877
149.28878208435128
135.842381366259
125.69575496227027
118.2532501392186
112.9479758589306
109.27320834926262
106.8005083595689
105.18594923353628
104.16716797628634
103.55489412787547
103.22257721035393
103.09696364519878
103.15175938515338
103.40557482404068
103.92456716757843
104.82936534894466
106.30502324476451
108.61174238121731
112.09329577308354
117.17924224140958
124.37710091001364
134.25136168761978
147.38815865656522
164.34741882893934
185.60725305749943
211.50873340334965
242.2101612289406
244.66310831769263
213.35725644834798
187.0148708579415
165.4096083711367
148.15763643233973
134.75700498691546
124.6374185267724
117.21083335129055
111.91512236662216
108.24645011040792
105.77808599695794
104.16716692648012
103.15206787928824
102.54422057435023
102.21789616647162
102.10089990852757
102.1682922875933
102.440317288571
102.98493754855808
103.92456462033661
105.44571276326428
107.80939423886805
111.35920713957417
116.5233784090819
123.80689554690153
133.77076244677303
146.9971609549501
164.04216367916885
185.3809120209106
211.35294613233367
242.11716539609384
243.5288876296392
212.41786044767122
186.19981568541724
164.6717038007582
147.466605274441
134.0941728494871
123.99182009179663
116.57616524806521
111.28798079290604
107.62500451219601
105.1614167101239
103.55489429304993
102.54422030414104
101.94127718587606
101.62091013437406
101.5116968133996
101.58966148747938
101.87616193030075
102.44031687390746
103.40557555422453
104.95915860280878
107.36227604681667
110.9580401783468
116.17345003695574
123.51163706188781
133.53134190696787
146.81250831976791
163.90940743422252
185.2963562329179
211.31358810213828
242.12256742677
242.84233245128544
211.85689639733312
185.71734456385082
164.23774890757153
147.06270950400653
133.70958844723776
123.62055908434753
116.21500487116731
110.93520350966973
107.27962714956722
104.82280813155953
103.22257796514732
102.21789585763027
101.62091054502683
101.30687774583816
101.20494371699851
101.29183084708963
101.58966119336155
102.16829158792025
103.15175855427053
104.7275994505889
107.15695147146313
110.78243584521272
116.03015200037606
123.40206271593975
133.4557195817621
146.77012448290068
163.8993215318485
185.31850592265448
211.3705628708266
242.22184408167612
242.44146440479417
211.53641455449227
185.44756367554396
164.00077337287925
146.84832067710434
133.5124342047459
123.43786195288735
116.04543065167088
110.77788812576686
107.13379611387674
104.68758237669728
103.09696186596865
102.10090008924269
101.51169626880727
101.20494373705651
101.11026261440985
101.20494389967469
101.51169650045553
102.10090076970603
103.09696266899041
104.68758151627314
107.13379838221294
110.77788601686079
116.0454343148298
123.43786648759084
133.51243029902702
146.84833171767997
164.00076447129578
185.447581208121
211.53638210024238
242.44146597805195
242.22187504854054
211.37054345257081
185.31853064087147
163.89934346815235
146.77012174864373
133.45573187266848
123.40206337890497
116.03015739004304
110.78243591954974
107.15695449719969
104.72760181595021
103.15175862983462
102.16829341939538
101.58966140584288
101.29183101942864
101.2049440212065
101.30687800433097
101.62090986678474
102.21789619987221
103.22257677981358
104.82280644120358
107.27962733923154
110.93519987875939
116.2150044246274
123.62054973898543
133.70959029587183
147.0626915431322
164.23772779489013
185.7173573557954
211.85686124312974
242.8423277137075
242.12260009181435
211.31356698520247
185.29636652796057
163.90939251893684
146.81251269214874
133.53133521646146
123.51163166170139
116.17345274913635
110.9580367760086
107.362277258799
104.9591573400469
103.40557448803101
102.44031645820928
101.87616161418721
101.58966176771158
101.51169687504527
101.62091023180632
101.9412775888697
102.54422077334647
103.55489368652344
105.16141814347039
107.6250029051077
111.28798316261165
116.57616815298925
123.99181670187943
134.0941805159725
147.46659698551898
164.67171581071264
186.1997836976333
212.41785504406366
243.5289147629642
242.117128378704
211.35295875597484
185.38092310333545
164.0421471569056
146.99716643761622
133.7707554133043
123.80689710127139
116.52337424034252
111.35920850295338
107.80939560585766
105.4457113746622
103.92456642878456
102.98493709568399
102.44031696137871
102.16829223695322
102.10089989380094
102.2178958473784
102.5442209175206
103.15206742523863
104.1671664307017
105.77808709452432
108.24644918449657
111.91512441224641
117.2108299742469
124.63742473490532
134.75699751416218
148.15762797823282
165.40962859709086
187.01485330198446
213.35726519208606
244.66315046489146
242.21014009235984
211.50874463264543
185.60723322285486
164.34742337824466
147.38814931411338
134.25135419285886
124.37710440439861
117.17923745660865
112.09329749589182
108.61174054700192
106.30502168907071
104.82936469461993
103.92456663601625
103.40557542446962
103.15175939381587
103.09696364559757
103.2225774228948
103.5548943667732
104.16716756155874
105.18595010464414
106.8005071890567
109.27320986388115
112.94797766897105
118.25324743000157
125.69576027615223
135.84237446318338
149.2887910994651
166.61686640237488
188.34539259675176
214.88159439460316
246.48215728477368
242.43927590534128
211.83847070579196
186.05319886035042
164.92315935662305
148.1027262140019
135.10785427118557
125.37204314005838
118.30308198833268
113.33167482185061
109.94732780024351
107.71947275434057
106.30501990655479
105.44571305352298
104.95915855413575
104.72759921611438
104.68758186947156
104.82280828424786
105.16141830362741
105.77808735666254
106.8005060488283
108.41899312964638
110.89717281330152
114.58080724451386
119.9012750918834
127.37011160787384
137.5617503387638
151.08348520320286
168.53398610506954
190.45534361258876
217.28522043608598
249.3175012887264
242.88352074257148
212.44797454300843
186.85221565522832
165.92967601055352
149.32615175682875
136.5472942254204
127.01658800366886
120.13337218221601
115.32248885734742
112.07065676872601
109.94732548832097
108.61173973401776
107.80939261431477
107.36227441264826
107.15695252989408
107.13379673314081
107.27962793845303
107.6250009694069
108.2464483762209
109.27320781181461
110.89717294979758
113.38399706106027
117.08250396423271
122.42890488466789
129.94232151434326
140.20873456807143
153.8521885073144
171.49466877570677
193.70868090398966
220.96920378701074
253.61229462167427
243.67617466103977
213.50697464463605
188.21004918019398
167.60687607881144
151.3283241754794
138.86435949704563
129.62446030738903
122.99729792846206
118.40160568434601
115.32250416749483
113.33167762725577
112.0933022721368
111.35921685500013
110.95804595586888
110.78244565675314
110.77789176180161
110.93520891172498
111.28798772379696
111.91513039460507
112.94798602588293
114.58081173081544
117.08251079116027
120.80682847482663
126.19759304540321
133.78543142401887
144.17309286811948
158.0078135137906
175.94199286481788
198.5854612048648
226.4554625313232
259.93114435253807
245.02123599729816
215.26621825749623
190.4221602558599
170.29015315266108
154.47777759286416
142.45290788722534
133.60709869998448
127.31728302878513
122.99729084442541
120.13337763743108
118.30308954559709
117.17924710325401
116.52338817087724
116.17345430758638
116.03016132784572
116.04543783844822
116.21501363079634
116.57617828398139
117.21083475216443
118.25325673794211
119.9012773809268
122.4289096474885
126.19759146978294
131.66267753130677
139.37151796306887
149.94997333938375
164.0756542723021
182.43819409126152
205.68969938031566
234.3905646625652
268.95729469255815
247.21110615312105
218.07422054939929
193.88794935719352
174.42101862225752
159.24792693191588
147.80802435722393
139.47235364985255
133.60709023694437
129.62445776162818
127.01659984891214
125.37205693516952
124.37709998691649
123.80690275414918
123.51163686212652
123.40207050116796
123.43787524779498
123.62055573150754
123.99182460287888
124.63742512670582
125.69576713551804
127.3701114995441
129.9423256663386
133.78544076488433
139.37151365665608
147.27100059836116
158.13999169787604
172.69323858056174
191.66251104056627
215.7429393515849
245.53233668058238
281.47016847927125
250.63925200632613
222.38655827335566
199.11473695732263
180.5453158322951
166.20942901571618
155.51328500291066
147.8080147626332
142.45290474516767
138.86435473082636
136.54728953749125
135.10785542411205
134.2513530635637
133.770765459613
133.53134618581316
133.4557208382356
133.51243412228905
133.70959077367021
134.094183481092
134.75699031732867
135.8423759184937
137.5617549628378
140.20873019293657
144.17309129238035
149.94997653947848
158.13998880495166
169.4362603675833
184.59546276155393
204.39213390280966
229.5584683630315
260.71500813867965
298.29998006204073
255.80440805713243
228.763294932275
206.70706444189574
189.29375293680215
176.00338263593866
166.20943553156977
159.24792307120612
154.47775090426381
151.3282994744723
149.32615185941455
148.10272814607075
147.38815374155357
146.99715348037006
146.81250377348974
146.7701154915693
146.84832558672514
147.06268125428304
147.46659071288144
148.15762520610778
149.28878366431502
151.08347421287402
153.85218387107838
158.00780987708848
164.0756504750266
172.69322863711363
184.59545527930638
200.58146063843662
221.46229533586381
247.99212198592483
280.78939984623355
320.2579389666326
263.3000691549018
237.84906902775248
217.3359936641101
201.34062248144633
189.29381323039485
180.54532874294756
174.42104189232563
170.29017051994157
167.60690086706074
165.92973431110104
164.92318065212123
164.34745023052042
164.04219000418894
163.90943748878826
163.89934659529106
164.00079398601983
164.23777301234742
164.6717431358687
165.40964924109537
166.61690344168068
168.53401634953744
171.4946938152444
175.94202618839583
182.43821684188816
191.66252951880048
204.39215130903142
221.46232989645586
243.70510906884147
271.87068807339404
306.5406221240654
348.0459444234817
273.78841381295314
250.33614199043058
231.68469019978158
217.33596951760765
206.7071059488731
199.11476222976904
193.8879833977201
190.42219395709628
188.2100439466584
186.85224900043116
186.05323728342862
185.6072749921684
185.38092822016839
185.29637745830613
185.31854657421192
185.44759987148703
185.71738310101884
186.19981540074627
187.01487678270627
188.34542317786926
190.45536647168802
193.7086937982851
198.58548925645826
205.68971525416524
215.74296418275873
229.5584847807714
247.99214057471372
271.8706858523786
301.90314201511944
338.5899435114572
382.15199035956067
287.9677514287441
266.92113333193214
250.3361198179402
237.84905545156093
228.76332846452422
222.38660143385067
218.07420917152598
215.26621772648153
213.50698512645562
212.44802774210098
211.83846094558123
211.50873984263598
211.35297770826577
211.31359337858913
211.37057578671613
211.53640127487083
211.85688768230148
212.41787214385982
213.35727345897908
214.88161114599353
217.28522801293664
220.96920296133186
226.4554907617584
234.39057436753038
245.5323493014124
260.71502011953083
280.7894123729822
306.5406236273606
338.58993530175144
377.2905254241978
422.72954309286274
306.740522472171
287.9677226312128
273.7883985229978
263.3000702245202
255.80440234585677
250.6392550274462
247.2111101108961
245.02125192699583
243.676126393408
242.88352035468273
242.4392793650765
242.21014727120738
242.11716125810415
242.1225686751042
242.22185268472373
242.44146427515435
242.84233504606422
243.52891327229008
244.66314028041273
246.48215540912003
249.31750291754247
253.6122827563457
259.9311546864786
268.95729090773193
281.4701604225433
298.299973435356
320.2579427827337
348.04593227695005
382.1519657677753
422.7295257556623
469.008901757131
