# vtk DataFile Version 2.0
Unstructured Grid Example
ASCII
DATASET UNSTRUCTURED_GRID

POINTS 961 float
0.150000006 -0.00839745998 0
0.146666661 -0.00839745998 0
0.143333331 -0.00839745998 0
0.140000001 -0.00839745998 0
0.13666667 -0.00839745998 0
0.13333334 -0.00839745998 0
0.129999995 -0.00839745998 0
0.126666665 -0.00839745998 0
0.123333335 -0.00839745998 0
0.119999997 -0.00839745998 0
0.116666667 -0.00839745998 0
0.113333337 -0.00839745998 0
0.109999999 -0.00839745998 0
0.106666669 -0.00839745998 0
0.103333332 -0.00839745998 0
0.100000001 -0.00839745998 0
0.0966666639 -0.00839745998 0
0.0933333337 -0.00839745998 0
0.0900000036 -0.00839745998 0
0.086666666 -0.00839745998 0
0.0833333358 -0.00839745998 0
0.0799999982 -0.00839745998 0
0.0766666681 -0.00839745998 0
0.0733333305 -0.00839745998 0
0.0700000003 -0.00839745998 0
0.0666666701 -0.00839745998 0
0.0633333325 -0.00839745998 0
0.0599999987 -0.00839745998 0
0.0566666685 -0.00839745998 0
0.0533333346 -0.00839745998 0
0.0500000007 -0.00839745998 0
0.148333326 -0.0112842107 0
0.144999996 -0.0112842107 0
0.141666666 -0.0112842107 0
0.138333336 -0.0112842107 0
0.135000005 -0.0112842107 0
0.13166666 -0.0112842107 0
0.12833333 -0.0112842107 0
0.125 -0.0112842107 0
0.12166667 -0.0112842107 0
0.118333332 -0.0112842107 0
0.115000002 -0.0112842107 0
0.111666664 -0.0112842107 0
0.108333334 -0.0112842107 0
0.104999997 -0.0112842107 0
0.101666667 -0.0112842107 0
0.0983333364 -0.0112842107 0
0.0949999988 -0.0112842107 0
0.0916666687 -0.0112842107 0
0.088333331 -0.0112842107 0
0.0850000009 -0.0112842107 0
0.0816666633 -0.0112842107 0
0.0783333331 -0.0112842107 0
0.075000003 -0.0112842107 0
0.0716666654 -0.0112842107 0
0.0683333352 -0.0112842107 0
0.0649999976 -0.0112842107 0
0.0616666675 -0.0112842107 0
0.0583333336 -0.0112842107 0
0.0549999997 -0.0112842107 0
0.0516666658 -0.0112842107 0
0.0483333319 -0.0112842107 0
0.146666661 -0.0141709624 0
0.143333331 -0.0141709624 0
0.140000001 -0.0141709624 0
0.13666667 -0.0141709624 0
0.13333334 -0.0141709624 0
0.129999995 -0.0141709624 0
0.126666665 -0.0141709624 0
0.123333335 -0.0141709624 0
0.119999997 -0.0141709624 0
0.116666667 -0.0141709624 0
0.113333337 -0.0141709624 0
0.109999999 -0.0141709624 0
0.106666669 -0.0141709624 0
0.103333332 -0.0141709624 0
0.100000001 -0.0141709624 0
0.0966666639 -0.0141709624 0
0.0933333337 -0.0141709624 0
0.0900000036 -0.0141709624 0
0.086666666 -0.0141709624 0
0.0833333358 -0.0141709624 0
0.0799999982 -0.0141709624 0
0.0766666681 -0.0141709624 0
0.0733333305 -0.0141709624 0
0.0700000003 -0.0141709624 0
0.0666666701 -0.0141709624 0
0.0633333325 -0.0141709624 0
0.0599999987 -0.0141709624 0
0.0566666685 -0.0141709624 0
0.0533333346 -0.0141709624 0
0.0500000007 -0.0141709624 0
0.0466666669 -0.0141709624 0
0.144999996 -0.0170577131 0
0.141666666 -0.0170577131 0
0.138333336 -0.0170577131 0
0.135000005 -0.0170577131 0
0.13166666 -0.0170577131 0
0.12833333 -0.0170577131 0
0.125 -0.0170577131 0
0.12166667 -0.0170577131 0
0.118333332 -0.0170577131 0
0.115000002 -0.0170577131 0
0.111666664 -0.0170577131 0
0.108333334 -0.0170577131 0
0.104999997 -0.0170577131 0
0.101666667 -0.0170577131 0
0.0983333364 -0.0170577131 0
0.0949999988 -0.0170577131 0
0.0916666687 -0.0170577131 0
0.088333331 -0.0170577131 0
0.0850000009 -0.0170577131 0
0.0816666633 -0.0170577131 0
0.0783333331 -0.0170577131 0
0.075000003 -0.0170577131 0
0.0716666654 -0.0170577131 0
0.0683333352 -0.0170577131 0
0.0649999976 -0.0170577131 0
0.0616666675 -0.0170577131 0
0.0583333336 -0.0170577131 0
0.0549999997 -0.0170577131 0
0.0516666658 -0.0170577131 0
0.0483333319 -0.0170577131 0
0.0450000018 -0.0170577131 0
0.143333331 -0.0199444648 0
0.140000001 -0.0199444648 0
0.13666667 -0.0199444648 0
0.13333334 -0.0199444648 0
0.129999995 -0.0199444648 0
0.126666665 -0.0199444648 0
0.123333335 -0.0199444648 0
0.119999997 -0.0199444648 0
0.116666667 -0.0199444648 0
0.113333337 -0.0199444648 0
0.109999999 -0.0199444648 0
0.106666669 -0.0199444648 0
0.103333332 -0.0199444648 0
0.100000001 -0.0199444648 0
0.0966666639 -0.0199444648 0
0.0933333337 -0.0199444648 0
0.0900000036 -0.0199444648 0
0.086666666 -0.0199444648 0
0.0833333358 -0.0199444648 0
0.0799999982 -0.0199444648 0
0.0766666681 -0.0199444648 0
0.0733333305 -0.0199444648 0
0.0700000003 -0.0199444648 0
0.0666666701 -0.0199444648 0
0.0633333325 -0.0199444648 0
0.0599999987 -0.0199444648 0
0.0566666685 -0.0199444648 0
0.0533333346 -0.0199444648 0
0.0500000007 -0.0199444648 0
0.0466666669 -0.0199444648 0
0.043333333 -0.0199444648 0
0.141666666 -0.0228312165 0
0.138333336 -0.0228312165 0
0.135000005 -0.0228312165 0
0.13166666 -0.0228312165 0
0.12833333 -0.0228312165 0
0.125 -0.0228312165 0
0.12166667 -0.0228312165 0
0.118333332 -0.0228312165 0
0.115000002 -0.0228312165 0
0.111666664 -0.0228312165 0
0.108333334 -0.0228312165 0
0.104999997 -0.0228312165 0
0.101666667 -0.0228312165 0
0.0983333364 -0.0228312165 0
0.0949999988 -0.0228312165 0
0.0916666687 -0.0228312165 0
0.088333331 -0.0228312165 0
0.0850000009 -0.0228312165 0
0.0816666633 -0.0228312165 0
0.0783333331 -0.0228312165 0
0.075000003 -0.0228312165 0
0.0716666654 -0.0228312165 0
0.0683333352 -0.0228312165 0
0.0649999976 -0.0228312165 0
0.0616666675 -0.0228312165 0
0.0583333336 -0.0228312165 0
0.0549999997 -0.0228312165 0
0.0516666658 -0.0228312165 0
0.0483333319 -0.0228312165 0
0.0450000018 -0.0228312165 0
0.0416666679 -0.0228312165 0
0.140000001 -0.0257179681 0
0.13666667 -0.0257179681 0
0.13333334 -0.0257179681 0
0.129999995 -0.0257179681 0
0.126666665 -0.0257179681 0
0.123333335 -0.0257179681 0
0.119999997 -0.0257179681 0
0.116666667 -0.0257179681 0
0.113333337 -0.0257179681 0
0.109999999 -0.0257179681 0
0.106666669 -0.0257179681 0
0.103333332 -0.0257179681 0
0.100000001 -0.0257179681 0
0.0966666639 -0.0257179681 0
0.0933333337 -0.0257179681 0
0.0900000036 -0.0257179681 0
0.086666666 -0.0257179681 0
0.0833333358 -0.0257179681 0
0.0799999982 -0.0257179681 0
0.0766666681 -0.0257179681 0
0.0733333305 -0.0257179681 0
0.0700000003 -0.0257179681 0
0.0666666701 -0.0257179681 0
0.0633333325 -0.0257179681 0
0.0599999987 -0.0257179681 0
0.0566666685 -0.0257179681 0
0.0533333346 -0.0257179681 0
0.0500000007 -0.0257179681 0
0.0466666669 -0.0257179681 0
0.043333333 -0.0257179681 0
0.0399999991 -0.0257179681 0
0.138333336 -0.0286047198 0
0.135000005 -0.0286047198 0
0.13166666 -0.0286047198 0
0.12833333 -0.0286047198 0
0.125 -0.0286047198 0
0.12166667 -0.0286047198 0
0.118333332 -0.0286047198 0
0.115000002 -0.0286047198 0
0.111666664 -0.0286047198 0
0.108333334 -0.0286047198 0
0.104999997 -0.0286047198 0
0.101666667 -0.0286047198 0
0.0983333364 -0.0286047198 0
0.0949999988 -0.0286047198 0
0.0916666687 -0.0286047198 0
0.088333331 -0.0286047198 0
0.0850000009 -0.0286047198 0
0.0816666633 -0.0286047198 0
0.0783333331 -0.0286047198 0
0.075000003 -0.0286047198 0
0.0716666654 -0.0286047198 0
0.0683333352 -0.0286047198 0
0.0649999976 -0.0286047198 0
0.0616666675 -0.0286047198 0
0.0583333336 -0.0286047198 0
0.0549999997 -0.0286047198 0
0.0516666658 -0.0286047198 0
0.0483333319 -0.0286047198 0
0.0450000018 -0.0286047198 0
0.0416666679 -0.0286047198 0
0.038333334 -0.0286047198 0
0.13666667 -0.0314914696 0
0.13333334 -0.0314914696 0
0.129999995 -0.0314914696 0
0.126666665 -0.0314914696 0
0.123333335 -0.0314914696 0
0.119999997 -0.0314914696 0
0.116666667 -0.0314914696 0
0.113333337 -0.0314914696 0
0.109999999 -0.0314914696 0
0.106666669 -0.0314914696 0
0.103333332 -0.0314914696 0
0.100000001 -0.0314914696 0
0.0966666639 -0.0314914696 0
0.0933333337 -0.0314914696 0
0.0900000036 -0.0314914696 0
0.086666666 -0.0314914696 0
0.0833333358 -0.0314914696 0
0.0799999982 -0.0314914696 0
0.0766666681 -0.0314914696 0
0.0733333305 -0.0314914696 0
0.0700000003 -0.0314914696 0
0.0666666701 -0.0314914696 0
0.0633333325 -0.0314914696 0
0.0599999987 -0.0314914696 0
0.0566666685 -0.0314914696 0
0.0533333346 -0.0314914696 0
0.0500000007 -0.0314914696 0
0.0466666669 -0.0314914696 0
0.043333333 -0.0314914696 0
0.0399999991 -0.0314914696 0
0.0366666652 -0.0314914696 0
0.135000005 -0.0343782231 0
0.13166666 -0.0343782231 0
0.12833333 -0.0343782231 0
0.125 -0.0343782231 0
0.12166667 -0.0343782231 0
0.118333332 -0.0343782231 0
0.115000002 -0.0343782231 0
0.111666664 -0.0343782231 0
0.108333334 -0.0343782231 0
0.104999997 -0.0343782231 0
0.101666667 -0.0343782231 0
0.0983333364 -0.0343782231 0
0.0949999988 -0.0343782231 0
0.0916666687 -0.0343782231 0
0.088333331 -0.0343782231 0
0.0850000009 -0.0343782231 0
0.0816666633 -0.0343782231 0
0.0783333331 -0.0343782231 0
0.075000003 -0.0343782231 0
0.0716666654 -0.0343782231 0
0.0683333352 -0.0343782231 0
0.0649999976 -0.0343782231 0
0.0616666675 -0.0343782231 0
0.0583333336 -0.0343782231 0
0.0549999997 -0.0343782231 0
0.0516666658 -0.0343782231 0
0.0483333319 -0.0343782231 0
0.0450000018 -0.0343782231 0
0.0416666679 -0.0343782231 0
0.038333334 -0.0343782231 0
0.0350000001 -0.0343782231 0
0.13333334 -0.0372649729 0
0.129999995 -0.0372649729 0
0.126666665 -0.0372649729 0
0.123333335 -0.0372649729 0
0.119999997 -0.0372649729 0
0.116666667 -0.0372649729 0
0.113333337 -0.0372649729 0
0.109999999 -0.0372649729 0
0.106666669 -0.0372649729 0
0.103333332 -0.0372649729 0
0.100000001 -0.0372649729 0
0.0966666639 -0.0372649729 0
0.0933333337 -0.0372649729 0
0.0900000036 -0.0372649729 0
0.086666666 -0.0372649729 0
0.0833333358 -0.0372649729 0
0.0799999982 -0.0372649729 0
0.0766666681 -0.0372649729 0
0.0733333305 -0.0372649729 0
0.0700000003 -0.0372649729 0
0.0666666701 -0.0372649729 0
0.0633333325 -0.0372649729 0
0.0599999987 -0.0372649729 0
0.0566666685 -0.0372649729 0
0.0533333346 -0.0372649729 0
0.0500000007 -0.0372649729 0
0.0466666669 -0.0372649729 0
0.043333333 -0.0372649729 0
0.0399999991 -0.0372649729 0
0.0366666652 -0.0372649729 0
0.0333333351 -0.0372649729 0
0.13166666 -0.0401517227 0
0.12833333 -0.0401517227 0
0.125 -0.0401517227 0
0.12166667 -0.0401517227 0
0.118333332 -0.0401517227 0
0.115000002 -0.0401517227 0
0.111666664 -0.0401517227 0
[...]
POINT_DATA 961
SCALARS Temp float 1
LOOKUP_TABLE default
515.7802355976676
471.6937832762004
431.9969742185861
397.3898286997662
367.9143127476643
343.37635810828834
323.4092299525787
307.5283805382777
295.1827366050216
285.80183376508546
278.8342375709698
273.7755797525896
270.1862167916366
267.6993751860906
266.0218207258776
264.92973919808156
264.2621368240344
263.9140653935406
263.8313066660049
264.007638822056
264.48514661384456
265.3573727830664
266.77441381603364
268.9484683842966
272.1576854195214
276.74614856634764
283.11784867551313
291.7236968671381
303.0433502546397
317.57052716600293
335.9727890408136
471.69379585476037
427.9707480823064
389.48471015247816
356.3115867256537
328.3564335135282
305.32493983683173
286.77549342328473
272.1714210115175
260.93193021699625
252.4759777434627
246.2568132956147
241.78553217237962
238.6445111878766
236.4918799082605
235.05974584887917
234.1485255548662
233.6199477907795
233.39069164184397
233.42811379103176
233.74891955847056
234.4209202659251
235.5673360256206
237.37243964389455
240.08664144077693
244.02872840420898
249.58299959019288
257.1893069543948
267.3258114529671
280.48589232599585
297.15851616256145
317.5705468590091
431.9969269598953
389.48468614162675
352.40069478034803
320.7332959801555
294.27669982009684
272.657992144077
255.38229064339018
241.8823806100206
231.56643559832
223.85785416119236
218.22503771958372
214.2008287325865
211.39220501918743
209.4821220829291
208.22616335882242
207.4462940416246
207.0241377587701
206.8954843732747
207.04728907635157
207.51771290526023
208.39907996863494
209.84290029534625
212.0654556800361
215.35175918162372
220.05556454664392
226.59299224964377
235.42807767477265
247.04950420099203
261.93688555361604
280.48588344031947
303.04336216019243
397.3897649655444
356.3115484931323
320.73329326323756
290.56019559693897
265.5126368698879
245.1650619273785
228.99154743981615
216.413743840983
206.8439919045396
199.72071506750854
194.5338195443374
190.84051682622908
188.27218295233519
186.53466880479093
185.4041588139672
184.7210987951503
184.38418238023658
184.34597008165207
184.61115846045487
185.23779870523896
186.34108410752313
188.0986229540957
190.75538061040615
194.62599444365003
200.09204159418587
207.59180054977085
217.60111785097797
230.6038528097141
247.0495216665594
267.32582471703057
291.7236884066734
367.91424648222
328.3563928447051
294.27667427639244
265.51272935248005
241.7350646501585
222.4884081083449
207.23585381296127
195.40321861490384
186.41787283042802
179.73955874797744
174.88235534128174
171.42762581091617
169.0291603017406
167.4127055164848
166.37181824106153
165.76239145787014
165.49758775967405
165.54461656844853
165.9241164964985
166.71226101943776
168.04498153278223
170.12301203825038
173.21573035889878
177.66150729254258
183.86199696006182
192.26827851203421
203.35765571160246
217.6011101016201
235.42807207373207
257.18930625837066
283.1178536911858
343.376285402207
305.32498928112926
272.65805663749836
245.16502440835654
222.48839249159
204.1622587842016
189.65431292218233
178.4054127180333
169.8643086423439
163.514779658251
158.89490924699828
155.6081083187759
153.3275673197498
151.79556607453085
150.81986318257233
150.26903272010193
150.0684164338466
150.19794156087934
150.6923805550902
151.6440104451183
153.20690660892126
155.6013652602701
159.1163883019568
164.10791522244338
170.990321691547
180.2197198894957
192.26827387565075
207.59180217900894
226.59299870210467
249.58297678474332
276.74614587306974
323.4092457989167
286.7755246081844
255.38234816586638
228.99150175716326
207.23583244724563
189.6543057611342
175.72983210051763
164.92481440424265
156.71195389569925
150.59892124323207
146.14569008533064
142.9746750689578
140.77502655525507
139.3023055543693
138.3756121946597
137.8738025110604
137.73240469300237
137.94227024732217
138.5504469148111
139.6630848257001
141.44948090204616
144.14563545923548
148.05531761013202
153.54626210336215
161.03945056691757
170.990316275804
183.86198611667956
200.09202628458596
220.05556567475915
244.02872744973922
272.15769334070694
307.52839828042767
272.1714517874528
241.88231161780513
216.41369893033357
195.40322265640344
178.40543150934394
164.92480879383396
154.4478452577896
146.47105561603811
140.5239334762131
136.18516577337437
133.09276145725605
130.94848822082713
129.51827441101068
128.63011354191286
128.1711331249007
128.08530688181642
128.37271678390746
129.09078410682793
130.35717271253122
132.35336203965204
135.32726617477397
139.59291778089786
145.5249398237862
153.5462582937076
164.1079092709677
177.66151126910108
194.62599649413383
215.35174338523575
240.08662139342277
268.9484570589944
295.1827452270472
260.93196579233125
231.56639324292073
206.8439750211581
186.41787819762177
169.8642914519755
156.71194747893898
146.4710731238118
138.6599335268728
132.82665853268978
128.5652226381014
125.52583893677702
123.41995363823374
122.02139998078354
121.1650422449312
120.74460444391264
120.71096820939431
121.07184219497911
121.8931351479359
123.30166904762483
125.48817456960305
128.7090245438293
133.28468442616284
139.59292160137372
148.05532076352378
159.1163890784731
173.2157291176214
190.75537588362712
212.06545871406178
237.37244850603005
266.774433188652
285.8018793561698
252.47591275664342
223.85782703710186
199.72070778023902
179.73957065575834
163.51477863722369
150.5989309228243
140.52392739283954
132.82665387676045
127.07029335590065
122.86078668012794
119.85753751883328
117.77920292025655
116.40551460225721
115.5765936376784
115.19136287634824
115.20624774306866
115.63508241839553
116.55046280833605
118.086161025891
120.439551589869
123.8725388968818
128.70902146678182
135.32726608895837
144.14563441806698
155.60136320111954
170.12300946939553
188.0986030541978
209.8428847888332
235.5673187807011
265.3573647234878
278.83430626412274
246.25676097562655
218.22501920131484
194.53382912561213
174.8823401322818
158.89491002550847
146.14570137656065
136.18516761762865
128.5652277432007
122.86078590950993
118.68669662812182
115.70908688862299
113.6518393014376
112.29899021726843
111.4946309717728
111.14171160399867
111.20100803459714
111.69111671239199
112.68968975932027
114.33550900163554
116.83041661667438
120.43955709253497
125.4881756071155
132.35335924542122
141.44947650007904
153.20690599441767
168.0449788577135
186.34108183334115
208.39908557253827
234.42092816376655
264.4851341240358
273.77551857406365
241.785500257583
214.20082677886674
190.84053117694648
171.42761181652702
155.60811685287274
142.97466722873233
133.09276358827634
125.52583048111175
119.8575369082724
115.70909241561044
112.7513653562854
110.71189914065117
109.3778211585239
108.5961674003366
108.27293808374807
108.37223306414005
108.9162232736247
109.98622269157876
111.72444683399186
114.33551366665425
118.08616408368145
123.301667403882
130.35718011322308
139.66309312865707
151.64402120340696
166.71225467111068
185.23779140244088
207.51771519395018
233.74892232169785
264.00765269168164
270.1861840691886
238.6445007977287
211.39222027459374
188.27216502242882
169.02916247176043
153.32758502791765
140.7750239593995
130.94849497555376
123.41995045880019
117.77920660569738
113.65183628846385
110.71189713122193
108.68937466822807
107.37355512109258
106.61360096071029
106.31778141485556
106.45266572576855
107.04302686680026
108.17272702649367
109.9862178611388
112.6896883375578
116.55046719777553
121.8931292843563
129.09078212377045
138.55044398032797
150.69237681528583
165.92411456071608
184.61115675766285
207.047296507586
233.42809086723778
263.8313109427812
267.6993468135651
236.49187715623734
209.48214634556294
186.53465304797803
167.4127106971582
151.7955522792898
139.30230752993265
129.5182678130871
122.0213976636278
116.40551973901238
112.29898685020535
109.37782178724355
107.37355460337105
106.07691504729449
105.33855441915433
105.06840807143986
105.2348515791661
105.86452161054996
107.0430260515832
108.91622472731089
111.69111670731174
115.63508521755492
121.07184168285897
128.3727218391761
137.94227809678353
150.1979366697337
165.54461100172
184.34596412768346
206.89548632440565
233.3906953747734
263.9140642622414
266.02181659666707
235.05976313370567
208.22614590457317
185.40415826273036
166.37183931265582
150.81986080623886
138.3756230244034
128.63011205068602
121.16504185848676
115.57659256066022
111.49463123001783
108.59616884282762
106.61360031072108
105.33855536990207
104.62273658096801
104.37731151397112
104.57201412118887
105.23485095777023
106.45266433478314
108.37223156455472
111.20100818398537
115.20624597495629
120.71096246870806
128.0853052809734
137.73240227601798
150.06841497624515
165.49758663236483
184.38418206219137
207.02411979775636
233.61994415637227
264.2621286184905
264.92973854796475
234.14854713126024
207.44628092153698
184.7211036063478
165.76237478457037
150.26903300375943
137.8737921115941
128.17113443071452
120.74460776197594
115.1913622564757
111.14171252467246
108.27293485203032
106.31778189999231
105.06840690815929
104.37731156987276
104.15665882692757
104.37731193708287
105.06840741758911
106.31778321531704
108.27293634155349
111.14171097642883
115.19136571819678
120.74460466507944
128.17113927817917
137.87379788929485
150.2690281680912
165.7623874526821
184.7210939950543
207.44629890961835
234.1485146214439
264.929740478705
264.26215938391147
233.6199243767586
207.0241454077921
184.38420548975677
165.4975836932492
150.06842957636815
137.73240325121728
128.0853128380082
120.71096265357451
115.20625096826417
111.20101235290585
108.37223180172421
106.45266812209842
105.23485145506412
104.57201452163993
104.37731221314539
104.62273716869288
105.33855388791022
106.61360108036382
108.59616674105932
111.49462842934261
115.57659316520673
121.16503674432943
128.63011181841878
138.37561171599557
150.81986347288694
166.3718197824776
185.40413615507458
208.2261606252224
235.05972897737067
266.0218141510289
263.9140968449343
233.39067449118127
206.89549707135785
184.34594806380298
165.54461626852884
150.19792883629228
137.9422715393481
128.37272558010412
121.07183695147319
115.63508722917251
111.69111457625166
108.91622285017189
107.04302520057885
105.8645209398222
105.23485219905062
105.06840819747272
105.33855464321466
106.07691590223331
107.37355556674397
109.37782061594399
112.2989892792105
116.40551722932217
122.0214011377991
129.5182719222875
139.30230320786276
151.7955618429459
167.41270155139242
186.5346662852912
209.48211377045052
236.49187271634233
267.69937581687185
263.83127408283156
233.4281035688039
207.0473080038413
184.61113946275233
165.9241208721268
150.69236875722893
138.55044626516943
129.0907765903621
121.89313145964027
116.55046938909729
112.6896860296919
109.98622125452917
108.17272612255312
107.04302618341356
106.45266562249435
106.31778140591412
106.61360017163469
107.37355585638649
108.68937373842672
110.71189614885914
113.65183827502794
117.77920510478026
123.41995356021175
130.94849058337883
140.7750319895334
153.32757644323507
169.02915312813693
188.2721879069778
211.39220234393798
238.64451059768257
270.1862274856033
264.00763205677094
233.74893380561943
207.5176949959172
185.23779679713323
166.71224446233484
151.64401272296948
139.66309762558387
130.3571739742841
123.30167001072235
118.08616124090331
114.33551116097702
111.72444559929563
109.98622166306
108.916224541826
108.37223301305004
108.2729380780747
108.59616789802699
109.37782171413731
110.711898285619
112.75136700796561
115.70909045240926
119.85753937855095
125.52583335232673
133.0927599360373
142.9746744361312
155.6081087950525
171.42762222159976
190.8405024100697
214.20082246734367
241.78552695771444
273.77557695537763
264.48514453151034
234.42093882040515
208.3990638847915
186.3410884741514
168.04496870404265
153.20690868264248
141.44946947301824
132.3533620474523
125.48817848503668
120.43955408811911
116.83042126587432
114.33550781210066
112.68968880655108
111.69111638742099
111.20100774522605
111.14171140397113
111.49463144333716
112.2989895550849
113.65183863747978
115.70908823298574
118.68669543161936
122.86078810512211
128.56522420337825
136.18517374774837
146.14569420353342
158.89490234077732
174.88235950634382
194.53381493576
218.22503170193718
246.25680969459327
278.83423163653407
265.35737266018515
235.56729287654736
209.84289013859095
188.09859058392078
170.12299919983985
155.60136868951074
144.1456269416935
135.32726948638216
128.70901794727337
123.87253578258664
120.43954997743064
118.08615962112472
116.55046477605582
115.63508226925794
115.20624757274959
115.1913631185585
115.57659389718249
116.40551402504452
117.77920403043049
119.85753606000166
122.8607884857618
127.07029538172347
132.82665101088153
140.5239330039092
150.59892445865316
163.5147876435267
179.73954742941515
199.72070731660992
223.85785845485776
252.47598674632184
285.8018472622465
266.77446275322677
237.37244343035061
212.06548467898938
190.75538064620457
173.21574743319016
159.11639416228374
148.05533658754462
139.5929365149611
133.28469112954002
128.70904034871302
125.48818243042216
123.30167678523918
121.89314329619393
121.07185010017042
120.71097679464906
120.74461286503865
121.16504968930124
122.02140723179244
123.41996182223755
125.52584481916337
128.56523037578322
132.82666116585722
138.65994259855415
146.47107047434955
156.71194321864965
169.86430813705985
186.41786578040265
206.8439856362941
231.56643783792833
260.93189626858907
295.1827162060025
268.948452542998
240.08665003604096
215.35174925855677
194.6260029899671
177.6615345708074
164.10791601385054
153.54627686311633
145.52494908889324
139.59292680293186
135.32727634681441
132.35337199839674
130.35718683441445
129.09079515537314
128.37272755845223
128.0853178434258
128.17114390146992
128.63012372994172
129.51828542527593
130.9484971048643
133.09277228230036
136.1851760300065
140.52393932643588
146.47106702750332
154.44784589223087
164.9248206758496
178.40541497756294
195.40322409666112
216.4137270076451
241.8823750380636
272.17141330867895
307.528383268291
272.15768155244604
244.0287480960751
220.0555633724572
200.09204055194385
183.86198603052065
170.99032957971
161.0394635018624
153.546265770902
148.0553326592506
144.14564126414865
141.4494867327397
139.66309122929673
138.5504531041857
137.9422778847843
137.7324117915577
137.87380900741968
138.37561876426787
139.30231276912795
140.77503228601964
142.97468238269826
146.145693888555
150.59893031110622
156.71195408450072
164.92481389845562
175.7298491981833
189.65429878890933
207.23584548855698
228.99154405037518
255.38228473828207
286.77549410090694
323.4092483473429
276.74615460432864
249.5829622706832
226.5929867128012
207.5918105937913
192.26826503514445
180.2197255353513
170.9903174745136
164.10791140149155
159.11638619292614
155.60136324763738
153.2069099853658
151.64401033837973
150.6923802572615
150.19794154125228
150.06841635718303
150.26903259196573
150.81986371306212
151.79556538116768
153.327568421295
155.60810927493193
158.89490746088939
163.51478282236704
169.86430386522426
178.4054177920578
189.65429471385008
204.1622561396248
222.48841268970978
245.1650742502936
272.65801010678507
305.3249560164047
343.37628427993565
283.1178494181751
257.18927970069416
235.42806506580908
217.60108823394052
203.3576494321495
192.26827237324312
183.86198081038177
177.66150440536393
173.21571732014982
170.12299920374576
168.04496942477658
166.71224873807253
165.92410627744343
165.54460558128747
165.49757643311204
165.76238043455714
166.37180770062247
167.4126940885181
169.02915032823856
171.4276135452904
174.88234753489562
179.7395442102892
186.41785827782118
195.40321885404305
207.23583340032224
222.4884043066682
241.73508476592232
265.51265000407216
294.2766179570355
328.3563565265949
367.914235581663
291.723703633457
267.32584238516154
247.04956086309178
230.60387281764397
217.60115263790155
207.59182401300828
200.09206507617822
194.6260193413893
190.755405369737
188.09865363433866
186.34111080545316
185.23782505926297
184.6111849650947
184.34599644001557
184.3842088461955
184.72112553248934
185.40418454110824
186.53469571077423
188.27220926831464
190.84054057152895
194.5338465594742
199.72073452014257
206.84401806108488
216.4137480491603
228.99156220699032
245.16509278112827
265.51268853463455
290.56015120310497
320.73324927747973
356.31151801213514
397.38976873638245
303.043374292438
280.48591708019063
261.93690226978686
247.0495360186298
235.4281087745184
226.59301217593847
220.05559809440095
215.3517817819397
212.06547830601502
209.84292348676618
208.39910279104095
207.51773797317537
207.04731313880046
206.89550811053482
207.0241617504174
207.4463181471704
208.22618654759157
209.48214610754607
211.39222681484046
214.20085349163998
218.22505592673406
223.8578712230451
231.56646352853184
241.88238793489927
255.3823091934965
272.6580271978291
294.27663755831287
320.7332452041957
352.40064889526144
389.48464947975435
431.9969211093553
317.57055013535245
297.1585389483546
280.4858944015534
267.3258281364306
257.1893120950884
249.58300481229296
244.02873509442898
240.08664813106668
237.3724527010589
235.56734499754083
234.420928798512
233.7489282888262
233.42812244429712
233.39070064963454
233.61995698437084
234.14853405452453
235.0597554477025
236.49188902019895
238.64451839374843
241.78554231041602
246.2568169920398
252.4759872724866
260.93192027537077
272.17141993433967
286.77550538762245
305.3249685379651
328.35637037698586
356.31151724629785
389.48464070966077
427.9706859196227
471.6937018230139
335.97280487110834
317.57052117162516
303.0433583544127
291.7237040976939
283.1178443228209
276.7461578477138
272.1576836295742
268.94846742506496
266.77441332578087
265.3573712324461
264.4851476315612
264.0076387167634
263.83130663145056
263.9140655166396
264.2621370302207
264.92973882091405
266.02182071532485
267.699373801029
270.1862179253709
273.77557516349844
278.83423208499323
285.8018383110454
295.1827229887531
307.5283762426311
323.40923891904583
343.37627693095095
367.914241080277
397.38975550463095
431.99689663554307
471.693685138653
515.7798523885389
